VARIABLES="X" "Y" "Z" "NX" "NY" "NZ" "A"
 ZONE N=         125 , E=         246  , F=FEPOINT,ET=QUADRILATERAL
  -0.4559500E+00   0.1250000E-02  -0.1500000E+00   0.0000000E+00   0.0000000E+00   0.0000000E+00   0.0000000E+00
  -0.4553438E+00  -0.2228610E-01  -0.1500000E+00   0.0000000E+00   0.0000000E+00   0.0000000E+00   0.0000000E+00
  -0.5642492E+00  -0.2789980E-01  -0.4600000E-02   0.0000000E+00   0.0000000E+00   0.0000000E+00   0.0000000E+00
  -0.4505038E+00  -0.6910870E-01  -0.1500000E+00   0.0000000E+00   0.0000000E+00   0.0000000E+00   0.0000000E+00
  -0.5582547E+00  -0.8589050E-01  -0.4600000E-02   0.0000000E+00   0.0000000E+00   0.0000000E+00   0.0000000E+00
  -0.4408751E+00  -0.1151856E+00  -0.1500000E+00   0.0000000E+00   0.0000000E+00   0.0000000E+00   0.0000000E+00
  -0.5463294E+00  -0.1429575E+00  -0.4600000E-02   0.0000000E+00   0.0000000E+00   0.0000000E+00   0.0000000E+00
  -0.4265597E+00  -0.1600282E+00  -0.1500000E+00   0.0000000E+00   0.0000000E+00   0.0000000E+00   0.0000000E+00
  -0.5285996E+00  -0.1984958E+00  -0.4600000E-02   0.0000000E+00   0.0000000E+00   0.0000000E+00   0.0000000E+00
  -0.4077095E+00  -0.2031613E+00  -0.1500000E+00   0.0000000E+00   0.0000000E+00   0.0000000E+00   0.0000000E+00
  -0.5052533E+00  -0.2519168E+00  -0.4600000E-02   0.0000000E+00   0.0000000E+00   0.0000000E+00   0.0000000E+00
  -0.3845242E+00  -0.2441275E+00  -0.1500000E+00   0.0000000E+00   0.0000000E+00   0.0000000E+00   0.0000000E+00
  -0.4765379E+00  -0.3026542E+00  -0.4600000E-02   0.0000000E+00   0.0000000E+00   0.0000000E+00   0.0000000E+00
  -0.3572496E+00  -0.2824926E+00  -0.1500000E+00   0.0000000E+00   0.0000000E+00   0.0000000E+00   0.0000000E+00
  -0.4427578E+00  -0.3501701E+00  -0.4600000E-02   0.0000000E+00   0.0000000E+00   0.0000000E+00   0.0000000E+00
  -0.3261748E+00  -0.3178501E+00  -0.1500000E+00   0.0000000E+00   0.0000000E+00   0.0000000E+00   0.0000000E+00
  -0.4042712E+00  -0.3939609E+00  -0.4600000E-02   0.0000000E+00   0.0000000E+00   0.0000000E+00   0.0000000E+00
  -0.2916292E+00  -0.3498249E+00  -0.1500000E+00   0.0000000E+00   0.0000000E+00   0.0000000E+00   0.0000000E+00
  -0.3614859E+00  -0.4335623E+00  -0.4600000E-02   0.0000000E+00   0.0000000E+00   0.0000000E+00   0.0000000E+00
  -0.2539790E+00  -0.3780783E+00  -0.1500000E+00   0.0000000E+00   0.0000000E+00   0.0000000E+00   0.0000000E+00
  -0.3148555E+00  -0.4685546E+00  -0.4600000E-02   0.0000000E+00   0.0000000E+00   0.0000000E+00   0.0000000E+00
  -0.2136233E+00  -0.4023107E+00  -0.1500000E+00   0.0000000E+00   0.0000000E+00   0.0000000E+00   0.0000000E+00
  -0.2648743E+00  -0.4985668E+00  -0.4600000E-02   0.0000000E+00   0.0000000E+00   0.0000000E+00   0.0000000E+00
  -0.1709900E+00  -0.4222653E+00  -0.1500000E+00   0.0000000E+00   0.0000000E+00   0.0000000E+00   0.0000000E+00
  -0.2120721E+00  -0.5232809E+00  -0.4600000E-02   0.0000000E+00   0.0000000E+00   0.0000000E+00   0.0000000E+00
  -0.1265308E+00  -0.4377305E+00  -0.1500000E+00   0.0000000E+00   0.0000000E+00   0.0000000E+00   0.0000000E+00
  -0.1570087E+00  -0.5424348E+00  -0.4600000E-02   0.0000000E+00   0.0000000E+00   0.0000000E+00   0.0000000E+00
  -0.8071710E-01  -0.4485424E+00  -0.1500000E+00   0.0000000E+00   0.0000000E+00   0.0000000E+00   0.0000000E+00
  -0.1002677E+00  -0.5558256E+00  -0.4600000E-02   0.0000000E+00   0.0000000E+00   0.0000000E+00   0.0000000E+00
  -0.3403460E-01  -0.4545864E+00  -0.1500000E+00   0.0000000E+00   0.0000000E+00   0.0000000E+00   0.0000000E+00
  -0.4245060E-01  -0.5633112E+00  -0.4600000E-02   0.0000000E+00   0.0000000E+00   0.0000000E+00   0.0000000E+00
   0.1302200E-01  -0.4557984E+00  -0.1500000E+00   0.0000000E+00   0.0000000E+00   0.0000000E+00   0.0000000E+00
   0.1582980E-01  -0.5648122E+00  -0.4600000E-02   0.0000000E+00   0.0000000E+00   0.0000000E+00   0.0000000E+00
   0.5995380E-01  -0.4521656E+00  -0.1500000E+00   0.0000000E+00   0.0000000E+00   0.0000000E+00   0.0000000E+00
   0.7395560E-01  -0.5603129E+00  -0.4600000E-02   0.0000000E+00   0.0000000E+00   0.0000000E+00   0.0000000E+00
   0.1062633E+00  -0.4437265E+00  -0.1500000E+00   0.0000000E+00   0.0000000E+00   0.0000000E+00   0.0000000E+00
   0.1313107E+00  -0.5498609E+00  -0.4600000E-02   0.0000000E+00   0.0000000E+00   0.0000000E+00   0.0000000E+00
   0.1514596E+00  -0.4305705E+00  -0.1500000E+00   0.0000000E+00   0.0000000E+00   0.0000000E+00   0.0000000E+00
   0.1872871E+00  -0.5335670E+00  -0.4600000E-02   0.0000000E+00   0.0000000E+00   0.0000000E+00   0.0000000E+00
   0.1950637E+00  -0.4128371E+00  -0.1500000E+00   0.0000000E+00   0.0000000E+00   0.0000000E+00   0.0000000E+00
   0.2412916E+00  -0.5116039E+00  -0.4600000E-02   0.0000000E+00   0.0000000E+00   0.0000000E+00   0.0000000E+00
   0.2366133E+00  -0.3907142E+00  -0.1500000E+00   0.0000000E+00   0.0000000E+00   0.0000000E+00   0.0000000E+00
   0.2927515E+00  -0.4842044E+00  -0.4600000E-02   0.0000000E+00   0.0000000E+00   0.0000000E+00   0.0000000E+00
   0.2756680E+00  -0.3644365E+00  -0.1500000E+00   0.0000000E+00   0.0000000E+00   0.0000000E+00   0.0000000E+00
   0.3411214E+00  -0.4516589E+00  -0.4600000E-02   0.0000000E+00   0.0000000E+00   0.0000000E+00   0.0000000E+00
   0.3118138E+00  -0.3342824E+00  -0.1500000E+00   0.0000000E+00   0.0000000E+00   0.0000000E+00   0.0000000E+00
   0.3858885E+00  -0.4143126E+00  -0.4600000E-02   0.0000000E+00   0.0000000E+00   0.0000000E+00   0.0000000E+00
   0.3446676E+00  -0.3005715E+00  -0.1500000E+00   0.0000000E+00   0.0000000E+00   0.0000000E+00   0.0000000E+00
   0.4265785E+00  -0.3725611E+00  -0.4600000E-02   0.0000000E+00   0.0000000E+00   0.0000000E+00   0.0000000E+00
   0.3738810E+00  -0.2636613E+00  -0.1500000E+00   0.0000000E+00   0.0000000E+00   0.0000000E+00   0.0000000E+00
   0.4627600E+00  -0.3268472E+00  -0.4600000E-02   0.0000000E+00   0.0000000E+00   0.0000000E+00   0.0000000E+00
   0.3991444E+00  -0.2239430E+00  -0.1500000E+00   0.0000000E+00   0.0000000E+00   0.0000000E+00   0.0000000E+00
   0.4940490E+00  -0.2776553E+00  -0.4600000E-02   0.0000000E+00   0.0000000E+00   0.0000000E+00   0.0000000E+00
   0.4201901E+00  -0.1818375E+00  -0.1500000E+00   0.0000000E+00   0.0000000E+00   0.0000000E+00   0.0000000E+00
   0.5201140E+00  -0.2255070E+00  -0.4600000E-02   0.0000000E+00   0.0000000E+00   0.0000000E+00   0.0000000E+00
   0.4367950E+00  -0.1377913E+00  -0.1500000E+00   0.0000000E+00   0.0000000E+00   0.0000000E+00   0.0000000E+00
   0.5406800E+00  -0.1709550E+00  -0.4600000E-02   0.0000000E+00   0.0000000E+00   0.0000000E+00   0.0000000E+00
   0.4487830E+00  -0.9227120E-01  -0.1500000E+00   0.0000000E+00   0.0000000E+00   0.0000000E+00   0.0000000E+00
   0.5555270E+00  -0.1145776E+00  -0.4600000E-02   0.0000000E+00   0.0000000E+00   0.0000000E+00   0.0000000E+00
   0.4560270E+00  -0.4575970E-01  -0.1500000E+00   0.0000000E+00   0.0000000E+00   0.0000000E+00   0.0000000E+00
   0.5644990E+00  -0.5697240E-01  -0.4600000E-02   0.0000000E+00   0.0000000E+00   0.0000000E+00   0.0000000E+00
   0.4584500E+00   0.1250000E-02  -0.1500000E+00   0.0000000E+00   0.0000000E+00   0.0000000E+00   0.0000000E+00
   0.5675000E+00   0.1250000E-02  -0.4600000E-02   0.0000000E+00   0.0000000E+00   0.0000000E+00   0.0000000E+00
   0.4560270E+00   0.4825980E-01  -0.1500000E+00   0.0000000E+00   0.0000000E+00   0.0000000E+00   0.0000000E+00
   0.5644990E+00   0.5947240E-01  -0.4600000E-02   0.0000000E+00   0.0000000E+00   0.0000000E+00   0.0000000E+00
   0.4487830E+00   0.9477120E-01  -0.1500000E+00   0.0000000E+00   0.0000000E+00   0.0000000E+00   0.0000000E+00
   0.5555270E+00   0.1170776E+00  -0.4600000E-02   0.0000000E+00   0.0000000E+00   0.0000000E+00   0.0000000E+00
   0.4367950E+00   0.1402913E+00  -0.1500000E+00   0.0000000E+00   0.0000000E+00   0.0000000E+00   0.0000000E+00
   0.5406800E+00   0.1734551E+00  -0.4600000E-02   0.0000000E+00   0.0000000E+00   0.0000000E+00   0.0000000E+00
   0.4201901E+00   0.1843376E+00  -0.1500000E+00   0.0000000E+00   0.0000000E+00   0.0000000E+00   0.0000000E+00
   0.5201140E+00   0.2280070E+00  -0.4600000E-02   0.0000000E+00   0.0000000E+00   0.0000000E+00   0.0000000E+00
   0.3991444E+00   0.2264430E+00  -0.1500000E+00   0.0000000E+00   0.0000000E+00   0.0000000E+00   0.0000000E+00
   0.4940490E+00   0.2801554E+00  -0.4600000E-02   0.0000000E+00   0.0000000E+00   0.0000000E+00   0.0000000E+00
   0.3738810E+00   0.2661614E+00  -0.1500000E+00   0.0000000E+00   0.0000000E+00   0.0000000E+00   0.0000000E+00
   0.4627600E+00   0.3293472E+00  -0.4600000E-02   0.0000000E+00   0.0000000E+00   0.0000000E+00   0.0000000E+00
   0.3446676E+00   0.3030716E+00  -0.1500000E+00   0.0000000E+00   0.0000000E+00   0.0000000E+00   0.0000000E+00
   0.4265785E+00   0.3750612E+00  -0.4600000E-02   0.0000000E+00   0.0000000E+00   0.0000000E+00   0.0000000E+00
   0.3118138E+00   0.3367824E+00  -0.1500000E+00   0.0000000E+00   0.0000000E+00   0.0000000E+00   0.0000000E+00
   0.3858885E+00   0.4168126E+00  -0.4600000E-02   0.0000000E+00   0.0000000E+00   0.0000000E+00   0.0000000E+00
   0.2756680E+00   0.3669365E+00  -0.1500000E+00   0.0000000E+00   0.0000000E+00   0.0000000E+00   0.0000000E+00
   0.3411214E+00   0.4541590E+00  -0.4600000E-02   0.0000000E+00   0.0000000E+00   0.0000000E+00   0.0000000E+00
   0.2366133E+00   0.3932143E+00  -0.1500000E+00   0.0000000E+00   0.0000000E+00   0.0000000E+00   0.0000000E+00
   0.2927515E+00   0.4867040E+00  -0.4600000E-02   0.0000000E+00   0.0000000E+00   0.0000000E+00   0.0000000E+00
   0.1950637E+00   0.4153371E+00  -0.1500000E+00   0.0000000E+00   0.0000000E+00   0.0000000E+00   0.0000000E+00
   0.2412916E+00   0.5141040E+00  -0.4600000E-02   0.0000000E+00   0.0000000E+00   0.0000000E+00   0.0000000E+00
   0.1514596E+00   0.4330705E+00  -0.1500000E+00   0.0000000E+00   0.0000000E+00   0.0000000E+00   0.0000000E+00
   0.1872871E+00   0.5360670E+00  -0.4600000E-02   0.0000000E+00   0.0000000E+00   0.0000000E+00   0.0000000E+00
   0.1062633E+00   0.4462270E+00  -0.1500000E+00   0.0000000E+00   0.0000000E+00   0.0000000E+00   0.0000000E+00
   0.1313107E+00   0.5523610E+00  -0.4600000E-02   0.0000000E+00   0.0000000E+00   0.0000000E+00   0.0000000E+00
   0.5995380E-01   0.4546660E+00  -0.1500000E+00   0.0000000E+00   0.0000000E+00   0.0000000E+00   0.0000000E+00
   0.7395560E-01   0.5628130E+00  -0.4600000E-02   0.0000000E+00   0.0000000E+00   0.0000000E+00   0.0000000E+00
   0.1302200E-01   0.4582980E+00  -0.1500000E+00   0.0000000E+00   0.0000000E+00   0.0000000E+00   0.0000000E+00
   0.1582980E-01   0.5673120E+00  -0.4600000E-02   0.0000000E+00   0.0000000E+00   0.0000000E+00   0.0000000E+00
  -0.3403460E-01   0.4570860E+00  -0.1500000E+00   0.0000000E+00   0.0000000E+00   0.0000000E+00   0.0000000E+00
  -0.4245060E-01   0.5658110E+00  -0.4600000E-02   0.0000000E+00   0.0000000E+00   0.0000000E+00   0.0000000E+00
  -0.8071710E-01   0.4510420E+00  -0.1500000E+00   0.0000000E+00   0.0000000E+00   0.0000000E+00   0.0000000E+00
  -0.1002677E+00   0.5583260E+00  -0.4600000E-02   0.0000000E+00   0.0000000E+00   0.0000000E+00   0.0000000E+00
  -0.1265308E+00   0.4402310E+00  -0.1500000E+00   0.0000000E+00   0.0000000E+00   0.0000000E+00   0.0000000E+00
  -0.1570087E+00   0.5449350E+00  -0.4600000E-02   0.0000000E+00   0.0000000E+00   0.0000000E+00   0.0000000E+00
  -0.1709900E+00   0.4247653E+00  -0.1500000E+00   0.0000000E+00   0.0000000E+00   0.0000000E+00   0.0000000E+00
  -0.2120721E+00   0.5257810E+00  -0.4600000E-02   0.0000000E+00   0.0000000E+00   0.0000000E+00   0.0000000E+00
  -0.2136233E+00   0.4048108E+00  -0.1500000E+00   0.0000000E+00   0.0000000E+00   0.0000000E+00   0.0000000E+00
  -0.2648743E+00   0.5010670E+00  -0.4600000E-02   0.0000000E+00   0.0000000E+00   0.0000000E+00   0.0000000E+00
  -0.2539790E+00   0.3805784E+00  -0.1500000E+00   0.0000000E+00   0.0000000E+00   0.0000000E+00   0.0000000E+00
  -0.3148555E+00   0.4710550E+00  -0.4600000E-02   0.0000000E+00   0.0000000E+00   0.0000000E+00   0.0000000E+00
  -0.2916292E+00   0.3523250E+00  -0.1500000E+00   0.0000000E+00   0.0000000E+00   0.0000000E+00   0.0000000E+00
  -0.3614859E+00   0.4360620E+00  -0.4600000E-02   0.0000000E+00   0.0000000E+00   0.0000000E+00   0.0000000E+00
  -0.3261748E+00   0.3203501E+00  -0.1500000E+00   0.0000000E+00   0.0000000E+00   0.0000000E+00   0.0000000E+00
  -0.4042712E+00   0.3964609E+00  -0.4600000E-02   0.0000000E+00   0.0000000E+00   0.0000000E+00   0.0000000E+00
  -0.3572496E+00   0.2849927E+00  -0.1500000E+00   0.0000000E+00   0.0000000E+00   0.0000000E+00   0.0000000E+00
  -0.4427578E+00   0.3526701E+00  -0.4600000E-02   0.0000000E+00   0.0000000E+00   0.0000000E+00   0.0000000E+00
  -0.3845242E+00   0.2466275E+00  -0.1500000E+00   0.0000000E+00   0.0000000E+00   0.0000000E+00   0.0000000E+00
  -0.4765379E+00   0.3051542E+00  -0.4600000E-02   0.0000000E+00   0.0000000E+00   0.0000000E+00   0.0000000E+00
  -0.4077095E+00   0.2056613E+00  -0.1500000E+00   0.0000000E+00   0.0000000E+00   0.0000000E+00   0.0000000E+00
  -0.5052533E+00   0.2544169E+00  -0.4600000E-02   0.0000000E+00   0.0000000E+00   0.0000000E+00   0.0000000E+00
  -0.4265597E+00   0.1625283E+00  -0.1500000E+00   0.0000000E+00   0.0000000E+00   0.0000000E+00   0.0000000E+00
  -0.5285996E+00   0.2009959E+00  -0.4600000E-02   0.0000000E+00   0.0000000E+00   0.0000000E+00   0.0000000E+00
  -0.4408751E+00   0.1176857E+00  -0.1500000E+00   0.0000000E+00   0.0000000E+00   0.0000000E+00   0.0000000E+00
  -0.5463294E+00   0.1454575E+00  -0.4600000E-02   0.0000000E+00   0.0000000E+00   0.0000000E+00   0.0000000E+00
  -0.4505038E+00   0.7160880E-01  -0.1500000E+00   0.0000000E+00   0.0000000E+00   0.0000000E+00   0.0000000E+00
  -0.5582547E+00   0.8839060E-01  -0.4600000E-02   0.0000000E+00   0.0000000E+00   0.0000000E+00   0.0000000E+00
  -0.4553438E+00   0.2478610E-01  -0.1500000E+00   0.0000000E+00   0.0000000E+00   0.0000000E+00   0.0000000E+00
  -0.5642492E+00   0.3039990E-01  -0.4600000E-02   0.0000000E+00   0.0000000E+00   0.0000000E+00   0.0000000E+00
   0.1250000E-02   0.1250000E-02  -0.1500000E+00   0.0000000E+00   0.0000000E+00   0.0000000E+00   0.0000000E+00
   0.1250000E-02   0.1250000E-02  -0.4600000E-02   0.0000000E+00   0.0000000E+00   0.0000000E+00   0.0000000E+00
     1       2       3       1
     3       2       4       3
     3       4       5       3
     5       4       6       5
     5       6       7       5
     7       6       8       7
     7       8       9       7
     9       8      10       9
     9      10      11       9
    11      10      12      11
    11      12      13      11
    13      12      14      13
    13      14      15      13
    15      14      16      15
    15      16      17      15
    17      16      18      17
    17      18      19      17
    19      18      20      19
    19      20      21      19
    21      20      22      21
    21      22      23      21
    23      22      24      23
    23      24      25      23
    25      24      26      25
    25      26      27      25
    27      26      28      27
    27      28      29      27
    29      28      30      29
    29      30      31      29
    31      30      32      31
    31      32      33      31
    33      32      34      33
    33      34      35      33
    35      34      36      35
    35      36      37      35
    37      36      38      37
    37      38      39      37
    39      38      40      39
    39      40      41      39
    41      40      42      41
    41      42      43      41
    43      42      44      43
    43      44      45      43
    45      44      46      45
    45      46      47      45
    47      46      48      47
    47      48      49      47
    49      48      50      49
    49      50      51      49
    51      50      52      51
    51      52      53      51
    53      52      54      53
    53      54      55      53
    55      54      56      55
    55      56      57      55
    57      56      58      57
    57      58      59      57
    59      58      60      59
    59      60      61      59
    61      60      62      61
    61      62      63      61
    63      62      64      63
    63      64      65      63
    65      64      66      65
    65      66      67      65
    67      66      68      67
    67      68      69      67
    69      68      70      69
    69      70      71      69
    71      70      72      71
    71      72      73      71
    73      72      74      73
    73      74      75      73
    75      74      76      75
    75      76      77      75
    77      76      78      77
    77      78      79      77
    79      78      80      79
    79      80      81      79
    81      80      82      81
    81      82      83      81
    83      82      84      83
    83      84      85      83
    85      84      86      85
    85      86      87      85
    87      86      88      87
    87      88      89      87
    89      88      90      89
    89      90      91      89
    91      90      92      91
    91      92      93      91
    93      92      94      93
    93      94      95      93
    95      94      96      95
    95      96      97      95
    97      96      98      97
    97      98      99      97
    99      98     100      99
    99     100     101      99
   101     100     102     101
   101     102     103     101
   103     102     104     103
   103     104     105     103
   105     104     106     105
   105     106     107     105
   107     106     108     107
   107     108     109     107
   109     108     110     109
   109     110     111     109
   111     110     112     111
   111     112     113     111
   113     112     114     113
   113     114     115     113
   115     114     116     115
   115     116     117     115
   117     116     118     117
   117     118     119     117
   119     118     120     119
   119     120     121     119
   121     120     122     121
   121     122     123     121
   123     122       1     123
   123       1       3     123
     1     122     124       1
     1     124       2       1
     8       6     124       8
   124       6       4     124
   124       4       2     124
    14      12     124      14
   124      12      10     124
   124      10       8     124
    20      18     124      20
   124      18      16     124
   124      16      14     124
    26      24     124      26
   124      24      22     124
   124      22      20     124
    32      30     124      32
   124      30      28     124
   124      28      26     124
    38      36     124      38
   124      36      34     124
   124      34      32     124
    44      42     124      44
   124      42      40     124
   124      40      38     124
    50      48     124      50
   124      48      46     124
   124      46      44     124
    56      54     124      56
   124      54      52     124
   124      52      50     124
    62      60     124      62
   124      60      58     124
   124      58      56     124
    68      66     124      68
   124      66      64     124
   124      64      62     124
    74      72     124      74
   124      72      70     124
   124      70      68     124
    80      78     124      80
   124      78      76     124
   124      76      74     124
    86      84     124      86
   124      84      82     124
   124      82      80     124
    92      90     124      92
   124      90      88     124
   124      88      86     124
    98      96     124      98
   124      96      94     124
   124      94      92     124
   104     102     124     104
   124     102     100     124
   124     100      98     124
   110     108     124     110
   124     108     106     124
   124     106     104     124
   116     114     124     116
   124     114     112     124
   124     112     110     124
   122     120     124     122
   124     120     118     124
   124     118     116     124
    63      65     125      63
    57      59     125      57
   125      59      61     125
   125      61      63     125
    51      53     125      51
   125      53      55     125
   125      55      57     125
    45      47     125      45
   125      47      49     125
   125      49      51     125
    39      41     125      39
   125      41      43     125
   125      43      45     125
    33      35     125      33
   125      35      37     125
   125      37      39     125
    27      29     125      27
   125      29      31     125
   125      31      33     125
    21      23     125      21
   125      23      25     125
   125      25      27     125
    15      17     125      15
   125      17      19     125
   125      19      21     125
     9      11     125       9
   125      11      13     125
   125      13      15     125
     3       5     125       3
   125       5       7     125
   125       7       9     125
   119     121     125     119
   125     121     123     125
   125     123       3     125
   113     115     125     113
   125     115     117     125
   125     117     119     125
   107     109     125     107
   125     109     111     125
   125     111     113     125
   101     103     125     101
   125     103     105     125
   125     105     107     125
    95      97     125      95
   125      97      99     125
   125      99     101     125
    89      91     125      89
   125      91      93     125
   125      93      95     125
    83      85     125      83
   125      85      87     125
   125      87      89     125
    77      79     125      77
   125      79      81     125
   125      81      83     125
    71      73     125      71
   125      73      75     125
   125      75      77     125
    65      67     125      65
   125      67      69     125
   125      69      71     125
 ZONE t="normales", F=POINT, I=         246
  -0.4918477E+00  -0.1631197E-01  -0.1015333E+00  -0.7998304E+00  -0.2059988E-01  -0.5998724E+00   0.2139297E-02
  -0.4900323E+00  -0.3976487E-01  -0.1015333E+00  -0.7961400E+00  -0.8229639E-01  -0.5994903E+00   0.4275634E-02
  -0.5243359E+00  -0.6096634E-01  -0.5306667E-01  -0.7961400E+00  -0.8229616E-01  -0.5994903E+00   0.5295456E-02
  -0.4832112E+00  -0.9006160E-01  -0.1015333E+00  -0.7834587E+00  -0.1637192E+00  -0.5994903E+00   0.4275645E-02
  -0.5151531E+00  -0.1146779E+00  -0.5306667E-01  -0.7834586E+00  -0.1637192E+00  -0.5994903E+00   0.5295456E-02
  -0.4712548E+00  -0.1393904E+00  -0.1015333E+00  -0.7624719E+00  -0.2434094E+00  -0.5994903E+00   0.4275643E-02
  -0.5004963E+00  -0.1671605E+00  -0.5306667E-01  -0.7624720E+00  -0.2434084E+00  -0.5994905E+00   0.5295454E-02
  -0.4542896E+00  -0.1872284E+00  -0.1015333E+00  -0.7334040E+00  -0.3205148E+00  -0.5994906E+00   0.4275647E-02
  -0.4805208E+00  -0.2178580E+00  -0.5306667E-01  -0.7334036E+00  -0.3205164E+00  -0.5994902E+00   0.5295456E-02
  -0.4324957E+00  -0.2330686E+00  -0.1015333E+00  -0.6965607E+00  -0.3942269E+00  -0.5994901E+00   0.4275640E-02
  -0.4554384E+00  -0.2662328E+00  -0.5306667E-01  -0.6965610E+00  -0.3942260E+00  -0.5994903E+00   0.5295459E-02
  -0.4061039E+00  -0.2764248E+00  -0.1015333E+00  -0.6523337E+00  -0.4637585E+00  -0.5994903E+00   0.4275639E-02
  -0.4255151E+00  -0.3117723E+00  -0.5306667E-01  -0.6523338E+00  -0.4637585E+00  -0.5994904E+00   0.5295457E-02
  -0.3753940E+00  -0.3168376E+00  -0.1015333E+00  -0.6011932E+00  -0.5283731E+00  -0.5994904E+00   0.4275648E-02
  -0.3910679E+00  -0.3539937E+00  -0.5306667E-01  -0.6011931E+00  -0.5283732E+00  -0.5994903E+00   0.5295454E-02
  -0.3406917E+00  -0.3538787E+00  -0.1015333E+00  -0.5436773E+00  -0.5873895E+00  -0.5994903E+00   0.4275639E-02
  -0.3524621E+00  -0.3924494E+00  -0.5306667E-01  -0.5436779E+00  -0.5873886E+00  -0.5994906E+00   0.5295456E-02
  -0.3023647E+00  -0.3871552E+00  -0.1015333E+00  -0.4804005E+00  -0.6401768E+00  -0.5994906E+00   0.4275646E-02
  -0.3101068E+00  -0.4267318E+00  -0.5306667E-01  -0.4804002E+00  -0.6401772E+00  -0.5994905E+00   0.5295457E-02
  -0.2608193E+00  -0.4163145E+00  -0.1015333E+00  -0.4120302E+00  -0.6861795E+00  -0.5994905E+00   0.4275644E-02
  -0.2644510E+00  -0.4564774E+00  -0.5306667E-01  -0.4120307E+00  -0.6861791E+00  -0.5994906E+00   0.5295456E-02
  -0.2164959E+00  -0.4410476E+00  -0.1015333E+00  -0.3392941E+00  -0.7249072E+00  -0.5994906E+00   0.4275638E-02
  -0.2159788E+00  -0.4813710E+00  -0.5306667E-01  -0.3392933E+00  -0.7249079E+00  -0.5994904E+00   0.5295460E-02
  -0.1698643E+00  -0.4610922E+00  -0.1015333E+00  -0.2629591E+00  -0.7559522E+00  -0.5994903E+00   0.4275647E-02
  -0.1652039E+00  -0.5011488E+00  -0.5306667E-01  -0.2629592E+00  -0.7559522E+00  -0.5994904E+00   0.5295454E-02
  -0.1214189E+00  -0.4762359E+00  -0.1015333E+00  -0.1838377E+00  -0.7789834E+00  -0.5994904E+00   0.4275644E-02
  -0.1126645E+00  -0.5156009E+00  -0.5306667E-01  -0.1838387E+00  -0.7789829E+00  -0.5994906E+00   0.5295456E-02
  -0.7167314E-01  -0.4863181E+00  -0.1015333E+00  -0.1027680E+00  -0.7937567E+00  -0.5994906E+00   0.4275640E-02
  -0.5891763E-01  -0.5245744E+00  -0.5306667E-01  -0.1027675E+00  -0.7937568E+00  -0.5994905E+00   0.5295455E-02
  -0.2115440E-01  -0.4912320E+00  -0.1015333E+00  -0.2060799E-01  -0.8001165E+00  -0.5994905E+00   0.4275646E-02
  -0.4532933E-02  -0.5279739E+00  -0.5306667E-01  -0.2060799E-01  -0.8001165E+00  -0.5994905E+00   0.5295460E-02
   0.2960187E-01  -0.4909254E+00  -0.1015333E+00   0.6176926E-01  -0.7979948E+00  -0.5994905E+00   0.4275645E-02
   0.4991307E-01  -0.5257636E+00  -0.5306667E-01   0.6177001E-01  -0.7979949E+00  -0.5994903E+00   0.5295455E-02
   0.8005758E-01  -0.4854017E+00  -0.1015333E+00   0.1434924E+00  -0.7874143E+00  -0.5994903E+00   0.4275641E-02
   0.1038432E+00  -0.5179667E+00  -0.5306667E-01   0.1434934E+00  -0.7874143E+00  -0.5994902E+00   0.5295453E-02
   0.1296779E+00  -0.4747193E+00  -0.1015333E+00   0.2236955E+00  -0.7684867E+00  -0.5994900E+00   0.4275638E-02
   0.1566858E+00  -0.5046662E+00  -0.5306667E-01   0.2236949E+00  -0.7684869E+00  -0.5994903E+00   0.5295451E-02
   0.1779368E+00  -0.4589915E+00  -0.1015333E+00   0.3015266E+00  -0.7414130E+00  -0.5994903E+00   0.4275643E-02
   0.2078808E+00  -0.4860027E+00  -0.5306667E-01   0.3015257E+00  -0.7414131E+00  -0.5994904E+00   0.5295464E-02
   0.2243229E+00  -0.4383851E+00  -0.1015333E+00   0.3761618E+00  -0.7064797E+00  -0.5994904E+00   0.4275645E-02
   0.2568855E+00  -0.4621741E+00  -0.5306667E-01   0.3761610E+00  -0.7064800E+00  -0.5994906E+00   0.5295457E-02
   0.2683443E+00  -0.4131184E+00  -0.1015333E+00   0.4468076E+00  -0.6640587E+00  -0.5994906E+00   0.4275640E-02
   0.3031803E+00  -0.4334333E+00  -0.5306667E-01   0.4468086E+00  -0.6640583E+00  -0.5994904E+00   0.5295458E-02
   0.3095344E+00  -0.3834593E+00  -0.1015333E+00   0.5127192E+00  -0.6145977E+00  -0.5994904E+00   0.4275642E-02
   0.3462746E+00  -0.4000847E+00  -0.5306667E-01   0.5127193E+00  -0.6145976E+00  -0.5994903E+00   0.5295443E-02
   0.3474566E+00  -0.3497221E+00  -0.1015333E+00   0.5731953E+00  -0.5586221E+00  -0.5994903E+00   0.4275650E-02
   0.3857115E+00  -0.3624818E+00  -0.5306667E-01   0.5731952E+00  -0.5586221E+00  -0.5994903E+00   0.5295464E-02
   0.3817091E+00  -0.3122647E+00  -0.1015333E+00   0.6275956E+00  -0.4967244E+00  -0.5994903E+00   0.4275639E-02
   0.4210732E+00  -0.3210232E+00  -0.5306667E-01   0.6275937E+00  -0.4967261E+00  -0.5994909E+00   0.5295465E-02
   0.4119285E+00  -0.2714838E+00  -0.1015333E+00   0.6753426E+00  -0.4295614E+00  -0.5994910E+00   0.4275638E-02
   0.4519845E+00  -0.2761485E+00  -0.5306667E-01   0.6753442E+00  -0.4295596E+00  -0.5994905E+00   0.5295449E-02
   0.4377945E+00  -0.2278119E+00  -0.1015333E+00   0.7159315E+00  -0.3578456E+00  -0.5994904E+00   0.4275646E-02
   0.4781177E+00  -0.2283333E+00  -0.5306667E-01   0.7159345E+00  -0.3578415E+00  -0.5994892E+00   0.5295430E-02
   0.4590330E+00  -0.1817119E+00  -0.1015333E+00   0.7489312E+00  -0.2823383E+00  -0.5994890E+00   0.4275638E-02
   0.4991964E+00  -0.1780844E+00  -0.5306667E-01   0.7489277E+00  -0.2823441E+00  -0.5994906E+00   0.5295478E-02
   0.4754194E+00  -0.1336725E+00  -0.1015333E+00   0.7739908E+00  -0.2038355E+00  -0.5994909E+00   0.4275647E-02
   0.5149967E+00  -0.1259346E+00  -0.5306667E-01   0.7739930E+00  -0.2038309E+00  -0.5994897E+00   0.5295446E-02
   0.4867789E+00  -0.8420284E-01  -0.1015333E+00   0.7908483E+00  -0.1231716E+00  -0.5994896E+00   0.4275645E-02
   0.5253510E+00  -0.7243657E-01  -0.5306667E-01   0.7908471E+00  -0.1231750E+00  -0.5994904E+00   0.5295459E-02
   0.4929920E+00  -0.3382737E-01  -0.1015333E+00   0.7993209E+00  -0.4119885E-01  -0.5994904E+00   0.4275636E-02
   0.5301497E+00  -0.1815747E-01  -0.5306667E-01   0.7993208E+00  -0.4119963E-01  -0.5994906E+00   0.5295457E-02
   0.4939924E+00   0.1691993E-01  -0.1015333E+00   0.7993207E+00   0.4119875E-01  -0.5994906E+00   0.4275646E-02
   0.5293421E+00   0.3632740E-01  -0.5306667E-01   0.7993209E+00   0.4119963E-01  -0.5994903E+00   0.5295456E-02
   0.4897697E+00   0.6750114E-01  -0.1015333E+00   0.7908476E+00   0.1231718E+00  -0.5994904E+00   0.4275639E-02
   0.5229363E+00   0.9044041E-01  -0.5306667E-01   0.7908476E+00   0.1231751E+00  -0.5994897E+00   0.5295455E-02
   0.4803683E+00   0.1173800E+00  -0.1015333E+00   0.7739918E+00   0.2038357E+00  -0.5994896E+00   0.4275642E-02
   0.5110006E+00   0.1436080E+00  -0.5306667E-01   0.7739922E+00   0.2038303E+00  -0.5994908E+00   0.5295460E-02
   0.4658884E+00   0.1660280E+00  -0.1015333E+00   0.7489302E+00   0.2823372E+00  -0.5994909E+00   0.4275654E-02
   0.4936614E+00   0.1952666E+00  -0.5306667E-01   0.7489286E+00   0.2823450E+00  -0.5994891E+00   0.5295462E-02
   0.4464828E+00   0.2129292E+00  -0.1015333E+00   0.7159321E+00   0.3578469E+00  -0.5994890E+00   0.4275632E-02
   0.4711025E+00   0.2448685E+00  -0.5306667E-01   0.7159339E+00   0.3578406E+00  -0.5994904E+00   0.5295444E-02