VARIABLES="X" "Y" "Z" "NX" "NY" "NZ" "A"
 ZONE N=         246 , E=         264  , F=FEPOINT,ET=QUADRILATERAL
   0.5999595E-02   0.4999697E-02  -0.1407257E+00   0.0000000E+00   0.0000000E+00   0.0000000E+00   0.0000000E+00
   0.5999595E-02   0.0000000E+00  -0.1407257E+00   0.0000000E+00   0.0000000E+00   0.0000000E+00   0.0000000E+00
   0.5999595E-02   0.4999698E-02  -0.1420093E+00   0.0000000E+00   0.0000000E+00   0.0000000E+00   0.0000000E+00
   0.1499893E-02   0.4999697E-02  -0.1390879E+00   0.0000000E+00   0.0000000E+00   0.0000000E+00   0.0000000E+00
   0.1499893E-02   0.0000000E+00  -0.1390879E+00   0.0000000E+00   0.0000000E+00   0.0000000E+00   0.0000000E+00
   0.1499893E-02   0.4999696E-02  -0.1373643E+00   0.0000000E+00   0.0000000E+00   0.0000000E+00   0.0000000E+00
   0.1499893E-02   0.0000000E+00  -0.1373643E+00   0.0000000E+00   0.0000000E+00   0.0000000E+00   0.0000000E+00
  -0.5999634E-02   0.0000000E+00  -0.1499952E+00   0.0000000E+00   0.0000000E+00   0.0000000E+00   0.0000000E+00
   0.1499893E-02   0.0000000E+00  -0.1328051E+00   0.0000000E+00   0.0000000E+00   0.0000000E+00   0.0000000E+00
   0.1499893E-02   0.0000000E+00  -0.1310815E+00   0.0000000E+00   0.0000000E+00   0.0000000E+00   0.0000000E+00
  -0.5999588E-02   0.0000000E+00  -0.4760742E-05   0.0000000E+00   0.0000000E+00   0.0000000E+00   0.0000000E+00
  -0.5999634E-02   0.4999699E-02  -0.1499952E+00   0.0000000E+00   0.0000000E+00   0.0000000E+00   0.0000000E+00
   0.1499893E-02   0.0000000E+00  -0.1499952E+00   0.0000000E+00   0.0000000E+00   0.0000000E+00   0.0000000E+00
   0.1499893E-02   0.0000000E+00  -0.1453707E+00   0.0000000E+00   0.0000000E+00   0.0000000E+00   0.0000000E+00
   0.1499893E-02   0.0000000E+00  -0.1436471E+00   0.0000000E+00   0.0000000E+00   0.0000000E+00   0.0000000E+00
   0.1499893E-02   0.4999698E-02  -0.1436471E+00   0.0000000E+00   0.0000000E+00   0.0000000E+00   0.0000000E+00
   0.5999595E-02   0.0000000E+00  -0.1420093E+00   0.0000000E+00   0.0000000E+00   0.0000000E+00   0.0000000E+00
   0.1499893E-02   0.4999698E-02  -0.1453707E+00   0.0000000E+00   0.0000000E+00   0.0000000E+00   0.0000000E+00
   0.5999595E-02   0.4999699E-02  -0.1470084E+00   0.0000000E+00   0.0000000E+00   0.0000000E+00   0.0000000E+00
   0.1499893E-02   0.4999699E-02  -0.1499298E+00   0.0000000E+00   0.0000000E+00   0.0000000E+00   0.0000000E+00
   0.5999595E-02   0.4999699E-02  -0.1482921E+00   0.0000000E+00   0.0000000E+00   0.0000000E+00   0.0000000E+00
   0.5999595E-02   0.0000000E+00  -0.1482921E+00   0.0000000E+00   0.0000000E+00   0.0000000E+00   0.0000000E+00
   0.5999595E-02   0.0000000E+00  -0.1470084E+00   0.0000000E+00   0.0000000E+00   0.0000000E+00   0.0000000E+00
  -0.5999588E-02   0.4999661E-02  -0.4760742E-05   0.0000000E+00   0.0000000E+00   0.0000000E+00   0.0000000E+00
   0.1499931E-02   0.4999661E-02  -0.4760742E-05   0.0000000E+00   0.0000000E+00   0.0000000E+00   0.0000000E+00
   0.1499924E-02   0.4999662E-02  -0.5425720E-02   0.0000000E+00   0.0000000E+00   0.0000000E+00   0.0000000E+00
   0.1499924E-02   0.4999663E-02  -0.7149353E-02   0.0000000E+00   0.0000000E+00   0.0000000E+00   0.0000000E+00
   0.1499924E-02   0.0000000E+00  -0.7149353E-02   0.0000000E+00   0.0000000E+00   0.0000000E+00   0.0000000E+00
   0.5999626E-02   0.4999663E-02  -0.8787140E-02   0.0000000E+00   0.0000000E+00   0.0000000E+00   0.0000000E+00
   0.5999626E-02   0.4999664E-02  -0.1007074E-01   0.0000000E+00   0.0000000E+00   0.0000000E+00   0.0000000E+00
   0.5999626E-02   0.0000000E+00  -0.8787140E-02   0.0000000E+00   0.0000000E+00   0.0000000E+00   0.0000000E+00
   0.5999626E-02   0.0000000E+00  -0.1007074E-01   0.0000000E+00   0.0000000E+00   0.0000000E+00   0.0000000E+00
   0.1499924E-02   0.4999664E-02  -0.1170851E-01   0.0000000E+00   0.0000000E+00   0.0000000E+00   0.0000000E+00
   0.1499924E-02   0.0000000E+00  -0.1170853E-01   0.0000000E+00   0.0000000E+00   0.0000000E+00   0.0000000E+00
   0.1499924E-02   0.0000000E+00  -0.1343216E-01   0.0000000E+00   0.0000000E+00   0.0000000E+00   0.0000000E+00
   0.1499924E-02   0.0000000E+00  -0.1799130E-01   0.0000000E+00   0.0000000E+00   0.0000000E+00   0.0000000E+00
   0.1499924E-02   0.0000000E+00  -0.1971493E-01   0.0000000E+00   0.0000000E+00   0.0000000E+00   0.0000000E+00
   0.1499924E-02   0.4999665E-02  -0.1799130E-01   0.0000000E+00   0.0000000E+00   0.0000000E+00   0.0000000E+00
   0.5999619E-02   0.0000000E+00  -0.1635355E-01   0.0000000E+00   0.0000000E+00   0.0000000E+00   0.0000000E+00
   0.5999619E-02   0.0000000E+00  -0.1506992E-01   0.0000000E+00   0.0000000E+00   0.0000000E+00   0.0000000E+00
   0.5999626E-02   0.4999665E-02  -0.1635353E-01   0.0000000E+00   0.0000000E+00   0.0000000E+00   0.0000000E+00
   0.5999626E-02   0.4999665E-02  -0.1506990E-01   0.0000000E+00   0.0000000E+00   0.0000000E+00   0.0000000E+00
   0.1499924E-02   0.4999664E-02  -0.1343214E-01   0.0000000E+00   0.0000000E+00   0.0000000E+00   0.0000000E+00
   0.1499924E-02   0.4999667E-02  -0.1971493E-01   0.0000000E+00   0.0000000E+00   0.0000000E+00   0.0000000E+00
   0.1499924E-02   0.4999668E-02  -0.2427409E-01   0.0000000E+00   0.0000000E+00   0.0000000E+00   0.0000000E+00
   0.1499924E-02   0.4999668E-02  -0.2599773E-01   0.0000000E+00   0.0000000E+00   0.0000000E+00   0.0000000E+00
   0.1499924E-02   0.4999670E-02  -0.3055688E-01   0.0000000E+00   0.0000000E+00   0.0000000E+00   0.0000000E+00
   0.1499924E-02   0.4999670E-02  -0.3228050E-01   0.0000000E+00   0.0000000E+00   0.0000000E+00   0.0000000E+00
   0.1499916E-02   0.4999671E-02  -0.3683966E-01   0.0000000E+00   0.0000000E+00   0.0000000E+00   0.0000000E+00
   0.1499916E-02   0.4999672E-02  -0.3856329E-01   0.0000000E+00   0.0000000E+00   0.0000000E+00   0.0000000E+00
   0.1499916E-02   0.4999673E-02  -0.4312245E-01   0.0000000E+00   0.0000000E+00   0.0000000E+00   0.0000000E+00
   0.1499916E-02   0.4999673E-02  -0.4484608E-01   0.0000000E+00   0.0000000E+00   0.0000000E+00   0.0000000E+00
   0.1499916E-02   0.4999675E-02  -0.4940523E-01   0.0000000E+00   0.0000000E+00   0.0000000E+00   0.0000000E+00
   0.1499916E-02   0.4999676E-02  -0.5112888E-01   0.0000000E+00   0.0000000E+00   0.0000000E+00   0.0000000E+00
   0.1499916E-02   0.4999677E-02  -0.5568803E-01   0.0000000E+00   0.0000000E+00   0.0000000E+00   0.0000000E+00
   0.1499916E-02   0.4999677E-02  -0.5741166E-01   0.0000000E+00   0.0000000E+00   0.0000000E+00   0.0000000E+00
   0.1499916E-02   0.4999678E-02  -0.6197081E-01   0.0000000E+00   0.0000000E+00   0.0000000E+00   0.0000000E+00
   0.5999611E-02   0.4999678E-02  -0.6033305E-01   0.0000000E+00   0.0000000E+00   0.0000000E+00   0.0000000E+00
   0.5999611E-02   0.0000000E+00  -0.6033305E-01   0.0000000E+00   0.0000000E+00   0.0000000E+00   0.0000000E+00
   0.5999611E-02   0.0000000E+00  -0.5904942E-01   0.0000000E+00   0.0000000E+00   0.0000000E+00   0.0000000E+00
   0.1499908E-02   0.0000000E+00  -0.6197081E-01   0.0000000E+00   0.0000000E+00   0.0000000E+00   0.0000000E+00
   0.1499916E-02   0.0000000E+00  -0.5741166E-01   0.0000000E+00   0.0000000E+00   0.0000000E+00   0.0000000E+00
   0.1499908E-02   0.0000000E+00  -0.6369445E-01   0.0000000E+00   0.0000000E+00   0.0000000E+00   0.0000000E+00
   0.1499916E-02   0.4999679E-02  -0.6369445E-01   0.0000000E+00   0.0000000E+00   0.0000000E+00   0.0000000E+00
   0.5999611E-02   0.4999679E-02  -0.6533221E-01   0.0000000E+00   0.0000000E+00   0.0000000E+00   0.0000000E+00
   0.5999611E-02   0.4999680E-02  -0.6661583E-01   0.0000000E+00   0.0000000E+00   0.0000000E+00   0.0000000E+00
   0.1499908E-02   0.4999680E-02  -0.6825360E-01   0.0000000E+00   0.0000000E+00   0.0000000E+00   0.0000000E+00
   0.1499908E-02   0.4999680E-02  -0.6997723E-01   0.0000000E+00   0.0000000E+00   0.0000000E+00   0.0000000E+00
   0.1499908E-02   0.4999681E-02  -0.7453638E-01   0.0000000E+00   0.0000000E+00   0.0000000E+00   0.0000000E+00
   0.5999611E-02   0.4999680E-02  -0.7289862E-01   0.0000000E+00   0.0000000E+00   0.0000000E+00   0.0000000E+00
   0.5999611E-02   0.0000000E+00  -0.7289862E-01   0.0000000E+00   0.0000000E+00   0.0000000E+00   0.0000000E+00
   0.5999611E-02   0.0000000E+00  -0.7161499E-01   0.0000000E+00   0.0000000E+00   0.0000000E+00   0.0000000E+00
   0.1499908E-02   0.0000000E+00  -0.7453638E-01   0.0000000E+00   0.0000000E+00   0.0000000E+00   0.0000000E+00
   0.1499908E-02   0.0000000E+00  -0.6997723E-01   0.0000000E+00   0.0000000E+00   0.0000000E+00   0.0000000E+00
   0.1499908E-02   0.0000000E+00  -0.7626002E-01   0.0000000E+00   0.0000000E+00   0.0000000E+00   0.0000000E+00
   0.1499908E-02   0.0000000E+00  -0.8081918E-01   0.0000000E+00   0.0000000E+00   0.0000000E+00   0.0000000E+00
   0.1499908E-02   0.0000000E+00  -0.8254279E-01   0.0000000E+00   0.0000000E+00   0.0000000E+00   0.0000000E+00
   0.1499908E-02   0.4999682E-02  -0.8081918E-01   0.0000000E+00   0.0000000E+00   0.0000000E+00   0.0000000E+00
   0.5999603E-02   0.0000000E+00  -0.7918140E-01   0.0000000E+00   0.0000000E+00   0.0000000E+00   0.0000000E+00
   0.5999611E-02   0.0000000E+00  -0.7789778E-01   0.0000000E+00   0.0000000E+00   0.0000000E+00   0.0000000E+00
   0.5999611E-02   0.4999682E-02  -0.7918140E-01   0.0000000E+00   0.0000000E+00   0.0000000E+00   0.0000000E+00
   0.5999611E-02   0.4999681E-02  -0.7789778E-01   0.0000000E+00   0.0000000E+00   0.0000000E+00   0.0000000E+00
   0.1499908E-02   0.4999681E-02  -0.7626002E-01   0.0000000E+00   0.0000000E+00   0.0000000E+00   0.0000000E+00
   0.1499908E-02   0.4999683E-02  -0.8254279E-01   0.0000000E+00   0.0000000E+00   0.0000000E+00   0.0000000E+00
   0.1499908E-02   0.4999684E-02  -0.8710197E-01   0.0000000E+00   0.0000000E+00   0.0000000E+00   0.0000000E+00
   0.1499908E-02   0.4999684E-02  -0.8882559E-01   0.0000000E+00   0.0000000E+00   0.0000000E+00   0.0000000E+00
   0.1499908E-02   0.4999685E-02  -0.9338476E-01   0.0000000E+00   0.0000000E+00   0.0000000E+00   0.0000000E+00
   0.1499908E-02   0.4999686E-02  -0.9510838E-01   0.0000000E+00   0.0000000E+00   0.0000000E+00   0.0000000E+00
   0.1499901E-02   0.4999687E-02  -0.9966753E-01   0.0000000E+00   0.0000000E+00   0.0000000E+00   0.0000000E+00
   0.5999603E-02   0.4999687E-02  -0.9802977E-01   0.0000000E+00   0.0000000E+00   0.0000000E+00   0.0000000E+00
   0.5999603E-02   0.0000000E+00  -0.9802977E-01   0.0000000E+00   0.0000000E+00   0.0000000E+00   0.0000000E+00
   0.5999603E-02   0.0000000E+00  -0.9674615E-01   0.0000000E+00   0.0000000E+00   0.0000000E+00   0.0000000E+00
   0.1499901E-02   0.0000000E+00  -0.9966753E-01   0.0000000E+00   0.0000000E+00   0.0000000E+00   0.0000000E+00
   0.1499901E-02   0.0000000E+00  -0.9510838E-01   0.0000000E+00   0.0000000E+00   0.0000000E+00   0.0000000E+00
   0.5999603E-02   0.4999686E-02  -0.9674615E-01   0.0000000E+00   0.0000000E+00   0.0000000E+00   0.0000000E+00
   0.1499901E-02   0.0000000E+00  -0.1013912E+00   0.0000000E+00   0.0000000E+00   0.0000000E+00   0.0000000E+00
   0.1499901E-02   0.0000000E+00  -0.1059503E+00   0.0000000E+00   0.0000000E+00   0.0000000E+00   0.0000000E+00
   0.5999603E-02   0.0000000E+00  -0.1030289E+00   0.0000000E+00   0.0000000E+00   0.0000000E+00   0.0000000E+00
   0.5999603E-02   0.4999688E-02  -0.1030289E+00   0.0000000E+00   0.0000000E+00   0.0000000E+00   0.0000000E+00
   0.5999603E-02   0.4999688E-02  -0.1043126E+00   0.0000000E+00   0.0000000E+00   0.0000000E+00   0.0000000E+00
   0.1499901E-02   0.4999687E-02  -0.1013912E+00   0.0000000E+00   0.0000000E+00   0.0000000E+00   0.0000000E+00
   0.1499901E-02   0.4999688E-02  -0.1059503E+00   0.0000000E+00   0.0000000E+00   0.0000000E+00   0.0000000E+00
   0.1499901E-02   0.4999689E-02  -0.1076740E+00   0.0000000E+00   0.0000000E+00   0.0000000E+00   0.0000000E+00
   0.1499901E-02   0.4999690E-02  -0.1122331E+00   0.0000000E+00   0.0000000E+00   0.0000000E+00   0.0000000E+00
   0.5999603E-02   0.4999690E-02  -0.1105954E+00   0.0000000E+00   0.0000000E+00   0.0000000E+00   0.0000000E+00
   0.5999603E-02   0.0000000E+00  -0.1105954E+00   0.0000000E+00   0.0000000E+00   0.0000000E+00   0.0000000E+00
   0.5999603E-02   0.0000000E+00  -0.1093117E+00   0.0000000E+00   0.0000000E+00   0.0000000E+00   0.0000000E+00
   0.1499901E-02   0.0000000E+00  -0.1122331E+00   0.0000000E+00   0.0000000E+00   0.0000000E+00   0.0000000E+00
   0.1499901E-02   0.0000000E+00  -0.1076740E+00   0.0000000E+00   0.0000000E+00   0.0000000E+00   0.0000000E+00
   0.1499901E-02   0.0000000E+00  -0.1139567E+00   0.0000000E+00   0.0000000E+00   0.0000000E+00   0.0000000E+00
   0.1499901E-02   0.0000000E+00  -0.1185159E+00   0.0000000E+00   0.0000000E+00   0.0000000E+00   0.0000000E+00
   0.5999595E-02   0.0000000E+00  -0.1155945E+00   0.0000000E+00   0.0000000E+00   0.0000000E+00   0.0000000E+00
   0.5999603E-02   0.4999691E-02  -0.1155945E+00   0.0000000E+00   0.0000000E+00   0.0000000E+00   0.0000000E+00
   0.5999603E-02   0.4999691E-02  -0.1168781E+00   0.0000000E+00   0.0000000E+00   0.0000000E+00   0.0000000E+00
   0.1499901E-02   0.4999690E-02  -0.1139567E+00   0.0000000E+00   0.0000000E+00   0.0000000E+00   0.0000000E+00
   0.1499901E-02   0.4999692E-02  -0.1185159E+00   0.0000000E+00   0.0000000E+00   0.0000000E+00   0.0000000E+00
   0.1499901E-02   0.4999692E-02  -0.1202395E+00   0.0000000E+00   0.0000000E+00   0.0000000E+00   0.0000000E+00
   0.1499901E-02   0.4999693E-02  -0.1247987E+00   0.0000000E+00   0.0000000E+00   0.0000000E+00   0.0000000E+00
   0.1499901E-02   0.4999694E-02  -0.1265223E+00   0.0000000E+00   0.0000000E+00   0.0000000E+00   0.0000000E+00
   0.1499893E-02   0.4999695E-02  -0.1310815E+00   0.0000000E+00   0.0000000E+00   0.0000000E+00   0.0000000E+00
   0.1499893E-02   0.4999695E-02  -0.1328051E+00   0.0000000E+00   0.0000000E+00   0.0000000E+00   0.0000000E+00
   0.5999595E-02   0.4999696E-02  -0.1357265E+00   0.0000000E+00   0.0000000E+00   0.0000000E+00   0.0000000E+00
   0.5999595E-02   0.0000000E+00  -0.1357265E+00   0.0000000E+00   0.0000000E+00   0.0000000E+00   0.0000000E+00
   0.5999595E-02   0.0000000E+00  -0.1344429E+00   0.0000000E+00   0.0000000E+00   0.0000000E+00   0.0000000E+00
   0.5999595E-02   0.4999696E-02  -0.1344429E+00   0.0000000E+00   0.0000000E+00   0.0000000E+00   0.0000000E+00
   0.5999595E-02   0.4999694E-02  -0.1294437E+00   0.0000000E+00   0.0000000E+00   0.0000000E+00   0.0000000E+00
   0.5999595E-02   0.0000000E+00  -0.1294437E+00   0.0000000E+00   0.0000000E+00   0.0000000E+00   0.0000000E+00
   0.5999595E-02   0.0000000E+00  -0.1281601E+00   0.0000000E+00   0.0000000E+00   0.0000000E+00   0.0000000E+00
   0.1499893E-02   0.0000000E+00  -0.1265223E+00   0.0000000E+00   0.0000000E+00   0.0000000E+00   0.0000000E+00
   0.5999595E-02   0.4999694E-02  -0.1281601E+00   0.0000000E+00   0.0000000E+00   0.0000000E+00   0.0000000E+00
   0.1499893E-02   0.0000000E+00  -0.1247987E+00   0.0000000E+00   0.0000000E+00   0.0000000E+00   0.0000000E+00
   0.1499901E-02   0.0000000E+00  -0.1202395E+00   0.0000000E+00   0.0000000E+00   0.0000000E+00   0.0000000E+00
   0.5999595E-02   0.0000000E+00  -0.1218773E+00   0.0000000E+00   0.0000000E+00   0.0000000E+00   0.0000000E+00
   0.5999603E-02   0.4999692E-02  -0.1218773E+00   0.0000000E+00   0.0000000E+00   0.0000000E+00   0.0000000E+00
   0.5999595E-02   0.4999693E-02  -0.1231609E+00   0.0000000E+00   0.0000000E+00   0.0000000E+00   0.0000000E+00
   0.5999595E-02   0.0000000E+00  -0.1231609E+00   0.0000000E+00   0.0000000E+00   0.0000000E+00   0.0000000E+00
   0.5999595E-02   0.0000000E+00  -0.1168781E+00   0.0000000E+00   0.0000000E+00   0.0000000E+00   0.0000000E+00
   0.5999603E-02   0.4999689E-02  -0.1093117E+00   0.0000000E+00   0.0000000E+00   0.0000000E+00   0.0000000E+00
   0.5999603E-02   0.0000000E+00  -0.1043126E+00   0.0000000E+00   0.0000000E+00   0.0000000E+00   0.0000000E+00
   0.1499901E-02   0.0000000E+00  -0.9338476E-01   0.0000000E+00   0.0000000E+00   0.0000000E+00   0.0000000E+00
   0.5999603E-02   0.0000000E+00  -0.9174699E-01   0.0000000E+00   0.0000000E+00   0.0000000E+00   0.0000000E+00
   0.5999603E-02   0.0000000E+00  -0.9046336E-01   0.0000000E+00   0.0000000E+00   0.0000000E+00   0.0000000E+00
   0.1499908E-02   0.0000000E+00  -0.8882559E-01   0.0000000E+00   0.0000000E+00   0.0000000E+00   0.0000000E+00
   0.5999603E-02   0.4999685E-02  -0.9046336E-01   0.0000000E+00   0.0000000E+00   0.0000000E+00   0.0000000E+00
   0.5999603E-02   0.4999685E-02  -0.9174699E-01   0.0000000E+00   0.0000000E+00   0.0000000E+00   0.0000000E+00
   0.1499908E-02   0.0000000E+00  -0.8710197E-01   0.0000000E+00   0.0000000E+00   0.0000000E+00   0.0000000E+00
   0.5999603E-02   0.0000000E+00  -0.8546420E-01   0.0000000E+00   0.0000000E+00   0.0000000E+00   0.0000000E+00
   0.5999603E-02   0.0000000E+00  -0.8418057E-01   0.0000000E+00   0.0000000E+00   0.0000000E+00   0.0000000E+00
   0.5999611E-02   0.4999683E-02  -0.8546420E-01   0.0000000E+00   0.0000000E+00   0.0000000E+00   0.0000000E+00
   0.5999611E-02   0.4999683E-02  -0.8418057E-01   0.0000000E+00   0.0000000E+00   0.0000000E+00   0.0000000E+00
   0.1499908E-02   0.0000000E+00  -0.6825360E-01   0.0000000E+00   0.0000000E+00   0.0000000E+00   0.0000000E+00
   0.5999611E-02   0.0000000E+00  -0.6661583E-01   0.0000000E+00   0.0000000E+00   0.0000000E+00   0.0000000E+00
   0.5999611E-02   0.0000000E+00  -0.6533221E-01   0.0000000E+00   0.0000000E+00   0.0000000E+00   0.0000000E+00
   0.5999611E-02   0.4999680E-02  -0.7161499E-01   0.0000000E+00   0.0000000E+00   0.0000000E+00   0.0000000E+00
   0.1499916E-02   0.0000000E+00  -0.5568803E-01   0.0000000E+00   0.0000000E+00   0.0000000E+00   0.0000000E+00
   0.5999611E-02   0.0000000E+00  -0.5405027E-01   0.0000000E+00   0.0000000E+00   0.0000000E+00   0.0000000E+00
   0.5999611E-02   0.0000000E+00  -0.5276664E-01   0.0000000E+00   0.0000000E+00   0.0000000E+00   0.0000000E+00
   0.1499916E-02   0.0000000E+00  -0.5112888E-01   0.0000000E+00   0.0000000E+00   0.0000000E+00   0.0000000E+00
   0.5999619E-02   0.4999676E-02  -0.5276663E-01   0.0000000E+00   0.0000000E+00   0.0000000E+00   0.0000000E+00
   0.5999619E-02   0.4999677E-02  -0.5405027E-01   0.0000000E+00   0.0000000E+00   0.0000000E+00   0.0000000E+00
   0.1499916E-02   0.0000000E+00  -0.4940524E-01   0.0000000E+00   0.0000000E+00   0.0000000E+00   0.0000000E+00
   0.1499916E-02   0.0000000E+00  -0.4484608E-01   0.0000000E+00   0.0000000E+00   0.0000000E+00   0.0000000E+00
   0.5999619E-02   0.0000000E+00  -0.4648386E-01   0.0000000E+00   0.0000000E+00   0.0000000E+00   0.0000000E+00
   0.5999619E-02   0.4999675E-02  -0.4648386E-01   0.0000000E+00   0.0000000E+00   0.0000000E+00   0.0000000E+00
   0.5999619E-02   0.4999675E-02  -0.4776749E-01   0.0000000E+00   0.0000000E+00   0.0000000E+00   0.0000000E+00
   0.5999619E-02   0.0000000E+00  -0.4776749E-01   0.0000000E+00   0.0000000E+00   0.0000000E+00   0.0000000E+00
   0.1499916E-02   0.0000000E+00  -0.4312245E-01   0.0000000E+00   0.0000000E+00   0.0000000E+00   0.0000000E+00
   0.5999619E-02   0.0000000E+00  -0.4148469E-01   0.0000000E+00   0.0000000E+00   0.0000000E+00   0.0000000E+00
   0.5999619E-02   0.0000000E+00  -0.4020106E-01   0.0000000E+00   0.0000000E+00   0.0000000E+00   0.0000000E+00
   0.1499916E-02   0.0000000E+00  -0.3856330E-01   0.0000000E+00   0.0000000E+00   0.0000000E+00   0.0000000E+00
   0.5999619E-02   0.4999672E-02  -0.4020106E-01   0.0000000E+00   0.0000000E+00   0.0000000E+00   0.0000000E+00
   0.5999619E-02   0.4999672E-02  -0.4148469E-01   0.0000000E+00   0.0000000E+00   0.0000000E+00   0.0000000E+00
   0.1499916E-02   0.0000000E+00  -0.3683966E-01   0.0000000E+00   0.0000000E+00   0.0000000E+00   0.0000000E+00
   0.1499916E-02   0.0000000E+00  -0.3228051E-01   0.0000000E+00   0.0000000E+00   0.0000000E+00   0.0000000E+00
   0.5999619E-02   0.0000000E+00  -0.3391827E-01   0.0000000E+00   0.0000000E+00   0.0000000E+00   0.0000000E+00
   0.5999619E-02   0.4999670E-02  -0.3391827E-01   0.0000000E+00   0.0000000E+00   0.0000000E+00   0.0000000E+00
   0.5999619E-02   0.4999671E-02  -0.3520190E-01   0.0000000E+00   0.0000000E+00   0.0000000E+00   0.0000000E+00
   0.5999619E-02   0.0000000E+00  -0.3520191E-01   0.0000000E+00   0.0000000E+00   0.0000000E+00   0.0000000E+00
   0.1499916E-02   0.0000000E+00  -0.3055688E-01   0.0000000E+00   0.0000000E+00   0.0000000E+00   0.0000000E+00
   0.5999619E-02   0.0000000E+00  -0.2891911E-01   0.0000000E+00   0.0000000E+00   0.0000000E+00   0.0000000E+00
   0.5999619E-02   0.0000000E+00  -0.2763548E-01   0.0000000E+00   0.0000000E+00   0.0000000E+00   0.0000000E+00
   0.1499916E-02   0.0000000E+00  -0.2599773E-01   0.0000000E+00   0.0000000E+00   0.0000000E+00   0.0000000E+00
   0.5999619E-02   0.4999669E-02  -0.2763548E-01   0.0000000E+00   0.0000000E+00   0.0000000E+00   0.0000000E+00
   0.5999619E-02   0.4999669E-02  -0.2891911E-01   0.0000000E+00   0.0000000E+00   0.0000000E+00   0.0000000E+00
   0.1499924E-02   0.0000000E+00  -0.2427409E-01   0.0000000E+00   0.0000000E+00   0.0000000E+00   0.0000000E+00
   0.5999619E-02   0.0000000E+00  -0.2263632E-01   0.0000000E+00   0.0000000E+00   0.0000000E+00   0.0000000E+00
   0.5999619E-02   0.0000000E+00  -0.2135269E-01   0.0000000E+00   0.0000000E+00   0.0000000E+00   0.0000000E+00
   0.5999619E-02   0.4999668E-02  -0.2263632E-01   0.0000000E+00   0.0000000E+00   0.0000000E+00   0.0000000E+00
   0.5999626E-02   0.4999667E-02  -0.2135269E-01   0.0000000E+00   0.0000000E+00   0.0000000E+00   0.0000000E+00
   0.5999611E-02   0.4999678E-02  -0.5904942E-01   0.0000000E+00   0.0000000E+00   0.0000000E+00   0.0000000E+00
   0.1499924E-02   0.0000000E+00  -0.5425720E-02   0.0000000E+00   0.0000000E+00   0.0000000E+00   0.0000000E+00
   0.1499924E-02   0.0000000E+00  -0.8665771E-03   0.0000000E+00   0.0000000E+00   0.0000000E+00   0.0000000E+00
   0.5999626E-02   0.4999662E-02  -0.2504333E-02   0.0000000E+00   0.0000000E+00   0.0000000E+00   0.0000000E+00
   0.5999626E-02   0.4999662E-02  -0.3787964E-02   0.0000000E+00   0.0000000E+00   0.0000000E+00   0.0000000E+00
   0.5999626E-02   0.0000000E+00  -0.2504333E-02   0.0000000E+00   0.0000000E+00   0.0000000E+00   0.0000000E+00
   0.5999626E-02   0.0000000E+00  -0.3787964E-02   0.0000000E+00   0.0000000E+00   0.0000000E+00   0.0000000E+00
   0.3749737E-02   0.0000000E+00  -0.1399068E+00   0.0000000E+00   0.0000000E+00   0.0000000E+00   0.0000000E+00
  -0.5999611E-02   0.0000000E+00  -0.7500000E-01   0.0000000E+00   0.0000000E+00   0.0000000E+00   0.0000000E+00
  -0.2249857E-02   0.0000000E+00  -0.1499952E+00   0.0000000E+00   0.0000000E+00   0.0000000E+00   0.0000000E+00
   0.3749752E-02   0.0000000E+00  -0.1428282E+00   0.0000000E+00   0.0000000E+00   0.0000000E+00   0.0000000E+00
   0.3749737E-02   0.0000000E+00  -0.1461896E+00   0.0000000E+00   0.0000000E+00   0.0000000E+00   0.0000000E+00
   0.3749752E-02   0.0000000E+00  -0.1491110E+00   0.0000000E+00   0.0000000E+00   0.0000000E+00   0.0000000E+00
   0.3749782E-02   0.0000000E+00  -0.7968249E-02   0.0000000E+00   0.0000000E+00   0.0000000E+00   0.0000000E+00
   0.3749768E-02   0.0000000E+00  -0.1088963E-01   0.0000000E+00   0.0000000E+00   0.0000000E+00   0.0000000E+00
   0.3749765E-02   0.0000000E+00  -0.1717243E-01   0.0000000E+00   0.0000000E+00   0.0000000E+00   0.0000000E+00
   0.3749762E-02   0.0000000E+00  -0.6115193E-01   0.0000000E+00   0.0000000E+00   0.0000000E+00   0.0000000E+00
   0.3749761E-02   0.0000000E+00  -0.6451333E-01   0.0000000E+00   0.0000000E+00   0.0000000E+00   0.0000000E+00
   0.3749760E-02   0.0000000E+00  -0.7371750E-01   0.0000000E+00   0.0000000E+00   0.0000000E+00   0.0000000E+00
   0.3749757E-02   0.0000000E+00  -0.8000030E-01   0.0000000E+00   0.0000000E+00   0.0000000E+00   0.0000000E+00
   0.3749755E-02   0.0000000E+00  -0.9884865E-01   0.0000000E+00   0.0000000E+00   0.0000000E+00   0.0000000E+00
   0.3749750E-02   0.0000000E+00  -0.9592727E-01   0.0000000E+00   0.0000000E+00   0.0000000E+00   0.0000000E+00
   0.3749749E-02   0.0000000E+00  -0.1022101E+00   0.0000000E+00   0.0000000E+00   0.0000000E+00   0.0000000E+00
   0.3749756E-02   0.0000000E+00  -0.1114142E+00   0.0000000E+00   0.0000000E+00   0.0000000E+00   0.0000000E+00
   0.3749748E-02   0.0000000E+00  -0.1147756E+00   0.0000000E+00   0.0000000E+00   0.0000000E+00   0.0000000E+00
   0.3749751E-02   0.0000000E+00  -0.1365454E+00   0.0000000E+00   0.0000000E+00   0.0000000E+00   0.0000000E+00
   0.3749738E-02   0.0000000E+00  -0.1336240E+00   0.0000000E+00   0.0000000E+00   0.0000000E+00   0.0000000E+00
   0.3749750E-02   0.0000000E+00  -0.1302626E+00   0.0000000E+00   0.0000000E+00   0.0000000E+00   0.0000000E+00
   0.3749739E-02   0.0000000E+00  -0.1273412E+00   0.0000000E+00   0.0000000E+00   0.0000000E+00   0.0000000E+00
   0.3749747E-02   0.0000000E+00  -0.1210584E+00   0.0000000E+00   0.0000000E+00   0.0000000E+00   0.0000000E+00
   0.3749754E-02   0.0000000E+00  -0.1239798E+00   0.0000000E+00   0.0000000E+00   0.0000000E+00   0.0000000E+00
   0.3749753E-02   0.0000000E+00  -0.1176970E+00   0.0000000E+00   0.0000000E+00   0.0000000E+00   0.0000000E+00
   0.3749748E-02   0.0000000E+00  -0.1084928E+00   0.0000000E+00   0.0000000E+00   0.0000000E+00   0.0000000E+00
   0.3749755E-02   0.0000000E+00  -0.1051314E+00   0.0000000E+00   0.0000000E+00   0.0000000E+00   0.0000000E+00
   0.3749758E-02   0.0000000E+00  -0.9256587E-01   0.0000000E+00   0.0000000E+00   0.0000000E+00   0.0000000E+00
   0.3749754E-02   0.0000000E+00  -0.8964448E-01   0.0000000E+00   0.0000000E+00   0.0000000E+00   0.0000000E+00
   0.3749757E-02   0.0000000E+00  -0.8628309E-01   0.0000000E+00   0.0000000E+00   0.0000000E+00   0.0000000E+00
   0.3749759E-02   0.0000000E+00  -0.8336169E-01   0.0000000E+00   0.0000000E+00   0.0000000E+00   0.0000000E+00
   0.3749759E-02   0.0000000E+00  -0.7707890E-01   0.0000000E+00   0.0000000E+00   0.0000000E+00   0.0000000E+00
   0.3749759E-02   0.0000000E+00  -0.6743471E-01   0.0000000E+00   0.0000000E+00   0.0000000E+00   0.0000000E+00
   0.3749760E-02   0.0000000E+00  -0.7079611E-01   0.0000000E+00   0.0000000E+00   0.0000000E+00   0.0000000E+00
   0.3749761E-02   0.0000000E+00  -0.5486915E-01   0.0000000E+00   0.0000000E+00   0.0000000E+00   0.0000000E+00
   0.3749770E-02   0.0000000E+00  -0.5194775E-01   0.0000000E+00   0.0000000E+00   0.0000000E+00   0.0000000E+00
   0.3749770E-02   0.0000000E+00  -0.4566497E-01   0.0000000E+00   0.0000000E+00   0.0000000E+00   0.0000000E+00
   0.3749765E-02   0.0000000E+00  -0.4858636E-01   0.0000000E+00   0.0000000E+00   0.0000000E+00   0.0000000E+00
   0.3749764E-02   0.0000000E+00  -0.4230357E-01   0.0000000E+00   0.0000000E+00   0.0000000E+00   0.0000000E+00
   0.3749771E-02   0.0000000E+00  -0.3938219E-01   0.0000000E+00   0.0000000E+00   0.0000000E+00   0.0000000E+00
   0.3749772E-02   0.0000000E+00  -0.3309939E-01   0.0000000E+00   0.0000000E+00   0.0000000E+00   0.0000000E+00
   0.3749763E-02   0.0000000E+00  -0.3602079E-01   0.0000000E+00   0.0000000E+00   0.0000000E+00   0.0000000E+00
   0.3749766E-02   0.0000000E+00  -0.2973800E-01   0.0000000E+00   0.0000000E+00   0.0000000E+00   0.0000000E+00
   0.3749773E-02   0.0000000E+00  -0.2681661E-01   0.0000000E+00   0.0000000E+00   0.0000000E+00   0.0000000E+00
   0.3749765E-02   0.0000000E+00  -0.2345521E-01   0.0000000E+00   0.0000000E+00   0.0000000E+00   0.0000000E+00
   0.3749781E-02   0.0000000E+00  -0.2053382E-01   0.0000000E+00   0.0000000E+00   0.0000000E+00   0.0000000E+00
   0.3749765E-02   0.0000000E+00  -0.5823054E-01   0.0000000E+00   0.0000000E+00   0.0000000E+00   0.0000000E+00
   0.3749782E-02   0.0000000E+00  -0.1425103E-01   0.0000000E+00   0.0000000E+00   0.0000000E+00   0.0000000E+00
   0.3749783E-02   0.0000000E+00  -0.1685458E-02   0.0000000E+00   0.0000000E+00   0.0000000E+00   0.0000000E+00
   0.3749767E-02   0.0000000E+00  -0.4606845E-02   0.0000000E+00   0.0000000E+00   0.0000000E+00   0.0000000E+00
     1       3       4       1
     4       5     197       1
     4       6       5       4
     5       6       7       5
   198      12       8     198
     8      12     199       8
    14      16      15      14
    15      16     200      15
   200      16       3      17
    18      16      14      18
    18      14     201      19
    20      18      19      20
    20      19      21      20
   202      20      21      22
    13      20     202      13
    19      23      22      21
    12      18      20      12
    19     201      23      19
    12      16      18      12
     4      16      12       4
   199      12      20      13
    24      12     198      11
    25      26      24      25
    24      26      27      24
    27      26      28      27
    27      28     203      29
    30      27      29      30
    29      31      30      29
    30      31      32      30
   204      33      30      32
    34      33     204      34
    36      38     205      36
    42      40      39      41
    43      42      41      43
    41      38      43      41
    43      38      12      43
    43      12      33      43
    33      12      27      33
    38      44      12      38
    44      45      12      44
    12      45      46      12
    12      46      47      12
    47      48      12      47
    48      49      12      48
    12      49      50      12
    12      50      51      12
    51      52      12      51
    52      53      12      52
    12      53      54      12
    12      54      55      12
    55      56      12      55
    57      12      56      57
    57      56      58      57
   206      57      58      59
    64      57      61      63
    64      63     207      65
    64      65      66      64
    66      67      64      66
    64      67      12      64
    67      68      12      67
    69      12      68      69
    69      68      70      69
   208      69      70      71
    76      78     209      76
    82      80      79      81
    83      82      81      83
    81      78      83      81