VARIABLES="w (rad/s)"
"abs(F   1   1)" "angle(F   1   1)"
"abs(F   1   2)" "angle(F   1   2)"
"abs(F   1   3)" "angle(F   1   3)"
"abs(F   1   4)" "angle(F   1   4)"
"abs(F   1   5)" "angle(F   1   5)"
"abs(F   1   6)" "angle(F   1   6)"
Zone t="Diffraction force - beta =   0.000 deg",I=    10,F=POINT
  0.1000000E+00  0.3266799E+00 -0.1570723E+01  0.2383993E-03 -0.1525023E+01  0.3855960E-01 -0.2814043E-03  0.2014219E-02  0.1586121E+01  0.2437377E+01 -0.1570742E+01  0.5757017E-03  0.7942690E+00
  0.2000000E+00  0.1304995E+01 -0.1570719E+01  0.9551350E-03 -0.1524776E+01  0.1604969E+00  0.1789567E-04  0.8086970E-02  0.1584753E+01  0.9736742E+01 -0.1570739E+01  0.2298802E-02  0.7947054E+00
  0.3000000E+00  0.2944895E+01 -0.1570714E+01  0.2116596E-02 -0.1522939E+01  0.2811432E+00  0.1464765E-02  0.1790503E-01  0.1591947E+01  0.2198146E+02 -0.1570730E+01  0.5192176E-02  0.7935939E+00
  0.4000000E+00  0.5192245E+01 -0.1570702E+01  0.3828177E-02 -0.1525271E+01  0.7388835E+00  0.3168201E-02  0.3242530E-01  0.1580414E+01  0.3874022E+02 -0.1570725E+01  0.9114542E-02  0.7979595E+00
  0.5000000E+00  0.8082688E+01 -0.1570687E+01  0.5927090E-02 -0.1523652E+01  0.1258937E+01  0.7240050E-02  0.5027780E-01  0.1578842E+01  0.6030407E+02 -0.1570713E+01  0.1412067E-01  0.8022840E+00
  0.6000000E+00  0.1164056E+02 -0.1570668E+01  0.8411339E-02 -0.1522072E+01  0.1570912E+01  0.1783081E-01  0.7081024E-01  0.1584909E+01  0.8688184E+02 -0.1570691E+01  0.2030863E-01  0.8025239E+00
  0.7000000E+00  0.1575667E+02 -0.1570635E+01  0.1120900E-01 -0.1522242E+01  0.2002385E+01  0.3493647E-01  0.9527565E-01  0.1585366E+01  0.1176727E+03 -0.1570655E+01  0.2716554E-01  0.8129110E+00
  0.8000000E+00  0.2037175E+02 -0.1570586E+01  0.1479159E-01 -0.1523894E+01  0.3981232E+01  0.3827101E-01  0.1247637E+00  0.1571130E+01  0.1519814E+03 -0.1570618E+01  0.3540532E-01  0.8015707E+00
  0.9000000E+00  0.2574523E+02 -0.1570510E+01  0.1834869E-01 -0.1521301E+01  0.4487534E+01  0.6856341E-01  0.1491781E+00  0.1576522E+01  0.1922682E+03 -0.1570538E+01  0.4378014E-01  0.8204904E+00
  0.9999999E+00  0.3131129E+02 -0.1570391E+01  0.2301154E-01 -0.1523427E+01  0.8050120E+01  0.6960700E-01  0.1950341E+00  0.1559460E+01  0.2335846E+03 -0.1570433E+01  0.5320380E-01  0.8155127E+00
