VARIABLES="w (rad/s)"
"abs(F   1   1)" "angle(F   1   1)"
"abs(F   1   2)" "angle(F   1   2)"
"abs(F   1   3)" "angle(F   1   3)"
"abs(F   1   4)" "angle(F   1   4)"
"abs(F   1   5)" "angle(F   1   5)"
"abs(F   1   6)" "angle(F   1   6)"
Zone t="Diffraction force - beta =   0.000 deg",I=    10,F=POINT
  0.1000000E+00  0.1555128E+01 -0.1570845E+01  0.2376784E-03 -0.1550478E+01  0.1184325E+01 -0.3141582E+01  0.1988907E-02  0.2289015E+01  0.1161150E+02 -0.1570787E+01  0.2407280E-02  0.9503755E+00
  0.2000000E+00  0.6217671E+01 -0.1570788E+01  0.9522262E-03 -0.1455983E+01  0.4746760E+01 -0.3141587E+01  0.1175517E-01  0.2608587E+01  0.4642401E+02 -0.1570632E+01  0.9613880E-02  0.9519812E+00
  0.3000000E+00  0.1399424E+02 -0.1570768E+01  0.2072608E-02 -0.1584578E+01  0.1077162E+02  0.3141565E+01  0.1843722E-01  0.2360645E+01  0.1044932E+03 -0.1570646E+01  0.2163400E-01  0.9522268E+00
  0.4000000E+00  0.2482504E+02 -0.1570765E+01  0.3701219E-02 -0.1502601E+01  0.1890249E+02  0.3141490E+01  0.3279233E-01  0.2353687E+01  0.1853413E+03 -0.1570639E+01  0.3832234E-01  0.9542832E+00
  0.5000000E+00  0.3873777E+02 -0.1570748E+01  0.5599644E-02 -0.1560819E+01  0.2941804E+02  0.3141316E+01  0.5292792E-01  0.2416681E+01  0.2891933E+03 -0.1570619E+01  0.5971174E-01  0.9562529E+00
  0.6000000E+00  0.5574632E+02 -0.1570731E+01  0.7761877E-02 -0.1496943E+01  0.4257422E+02  0.3140982E+01  0.7348692E-01  0.2439574E+01  0.4161725E+03 -0.1570607E+01  0.8586209E-01  0.9571105E+00
  0.7000000E+00  0.7572852E+02 -0.1570715E+01  0.9974315E-02 -0.1555496E+01  0.5804778E+02  0.3140451E+01  0.9548237E-01  0.2447397E+01  0.5653710E+03 -0.1570586E+01  0.1162812E+00  0.9610252E+00
  0.8000000E+00  0.9860940E+02 -0.1570688E+01  0.1269808E-01 -0.1541766E+01  0.7438583E+02  0.3139631E+01  0.1231411E+00  0.2469953E+01  0.7359639E+03 -0.1570565E+01  0.1514994E+00  0.9595253E+00
  0.9000000E+00  0.1246297E+03 -0.1570654E+01  0.1502647E-01 -0.1514027E+01  0.9460995E+02  0.3138451E+01  0.1486956E+00  0.2547942E+01  0.9302599E+03 -0.1570529E+01  0.1905046E+00  0.9658406E+00
  0.9999999E+00  0.1532022E+03 -0.1570614E+01  0.1798680E-01 -0.1503713E+01  0.1141699E+03  0.3136824E+01  0.1838160E+00  0.2522903E+01  0.1143134E+04 -0.1570489E+01  0.2338331E+00  0.9665797E+00
