VARIABLES="w (rad/s)"
"abs(F   1   1)" "angle(F   1   1)"
"abs(F   1   2)" "angle(F   1   2)"
"abs(F   1   3)" "angle(F   1   3)"
"abs(F   1   4)" "angle(F   1   4)"
"abs(F   1   5)" "angle(F   1   5)"
"abs(F   1   6)" "angle(F   1   6)"
Zone t="FKforce - beta =   0.000",I=    10,F=POINT
  0.1000000E+00  0.1228448E+01 -0.1570877E+01  0.6101890E-05  0.3056234E+01  0.1222885E+01 -0.3141591E+01  0.1378308E-02 -0.2757578E+01  0.9174125E+01 -0.1570799E+01  0.1840756E-02  0.9990193E+00
  0.2000000E+00  0.4912676E+01 -0.1570806E+01  0.6565777E-04  0.1247078E+00  0.4907257E+01 -0.3141587E+01  0.1023224E-01 -0.2933583E+01  0.3668727E+02 -0.1570603E+01  0.7352273E-02  0.1000973E+01
  0.3000000E+00  0.1104934E+02 -0.1570783E+01  0.1363707E-03  0.2830358E+01  0.1105276E+02 -0.3141582E+01  0.1363566E-01 -0.2772283E+01  0.8251178E+02 -0.1570623E+01  0.1652738E-01  0.1001874E+01
  0.4000000E+00  0.1963280E+02 -0.1570782E+01  0.1529709E-03  0.1035782E+01  0.1964137E+02 -0.3141572E+01  0.2459431E-01 -0.2759161E+01  0.1466011E+03 -0.1570616E+01  0.2935326E-01  0.1002645E+01
  0.5000000E+00  0.3065508E+02 -0.1570764E+01  0.3912340E-03  0.2178717E+01  0.3067694E+02 -0.3141561E+01  0.4205111E-01 -0.2772231E+01  0.2288892E+03 -0.1570594E+01  0.4580933E-01  0.1003544E+01
  0.6000000E+00  0.4410576E+02 -0.1570747E+01  0.6804615E-03  0.1328828E+01  0.4414488E+02 -0.3141547E+01  0.5985279E-01 -0.2740858E+01  0.3292907E+03 -0.1570585E+01  0.6586989E-01  0.1004600E+01
  0.7000000E+00  0.5997185E+02 -0.1570736E+01  0.1283775E-02  0.1880630E+01  0.6004890E+02 -0.3141531E+01  0.7969773E-01 -0.2698364E+01  0.4476983E+03 -0.1570568E+01  0.8950295E-01  0.1005831E+01
  0.8000000E+00  0.7823765E+02 -0.1570714E+01  0.2107790E-02  0.1725572E+01  0.7836400E+02 -0.3141511E+01  0.1077086E+00 -0.2678278E+01  0.5839826E+03 -0.1570551E+01  0.1166678E+00  0.1007279E+01
  0.9000000E+00  0.9888452E+02 -0.1570692E+01  0.3324410E-02  0.1587409E+01  0.9908647E+02 -0.3141490E+01  0.1390589E+00 -0.2647089E+01  0.7379917E+03 -0.1570527E+01  0.1473226E+00  0.1008896E+01
  0.9999999E+00  0.1218909E+03 -0.1570671E+01  0.5040729E-02  0.1547766E+01  0.1221992E+03 -0.3141466E+01  0.1758046E+00 -0.2614629E+01  0.9095493E+03 -0.1570503E+01  0.1814120E+00  0.1010730E+01
