 VARIABLES="X" "Y" "abs(eta) (m)" "angle(phi) (rad)" "PRE1" "PRE2"
ZONE N=    100 ,E =      81 ,F=FEPOINT,ET=QUADRILATERAL
  -50.00000      -50.00000      5.0245134E-08   1.602659      1.6006606E-09
 -5.0219633E-08
  -50.00000      -38.88889      6.8310158E-08   1.594260      1.6026501E-09
 -6.8291357E-08
  -50.00000      -27.77778      3.4097638E-08   1.617989      1.6085762E-09
 -3.4059674E-08
  -50.00000      -16.66667      8.3194195E-08   1.590129      1.6082906E-09
 -8.3178648E-08
  -50.00000      -5.555557      1.1309449E-07   1.585006      1.6070317E-09
 -1.1308307E-07
  -50.00000       5.555557      1.1322476E-07   1.585007      1.6089033E-09
 -1.1321333E-07
  -50.00000       16.66666      8.3456214E-08   1.590082      1.6093761E-09
 -8.3440696E-08
  -50.00000       27.77778      3.4136345E-08   1.618004      1.6109112E-09
 -3.4098314E-08
  -50.00000       38.88889      6.8815162E-08   1.594065      1.6010639E-09
 -6.8796531E-08
  -50.00000       50.00000      5.0677173E-08   1.602421      1.6023767E-09
 -5.0651835E-08
  -38.88889      -50.00000      5.2612453E-08   1.589165      9.6634523E-10
 -5.2603578E-08
  -38.88889      -38.88889      4.3953758E-08   1.592827      9.6826824E-10
 -4.3943093E-08
  -38.88889      -27.77778      1.1395716E-07   1.579297      9.6872654E-10
 -1.1395305E-07
  -38.88889      -16.66667      1.8339114E-07   1.576070      9.6711550E-10
 -1.8338859E-07
  -38.88889      -5.555557      2.1263199E-07   1.575345      9.6720920E-10
 -2.1262979E-07
  -38.88889       5.555557      2.1297934E-07   1.575345      9.6877628E-10
 -2.1297714E-07
  -38.88889       16.66666      1.8440117E-07   1.576049      9.6859842E-10
 -1.8439863E-07
  -38.88889       27.77778      1.1490533E-07   1.579219      9.6774222E-10
 -1.1490125E-07
  -38.88889       38.88889      4.4254609E-08   1.592738      9.7095620E-10
 -4.4243958E-08
  -38.88889       50.00000      5.3259427E-08   1.588956      9.6712383E-10
 -5.3250645E-08
  -27.77778      -50.00000      1.8120746E-08   1.589146      3.3248518E-10
 -1.8117696E-08
  -27.77778      -38.88889      8.0510176E-08   1.574905      3.3075570E-10
 -8.0509494E-08
  -27.77778      -27.77778      1.5032805E-07   1.572985      3.2900641E-10
 -1.5032769E-07
  -27.77778      -16.66667      2.3379772E-07   1.572198      3.2774811E-10
 -2.3379749E-07
  -27.77778      -5.555557      5.0030320E-07   1.571452      3.2827710E-10
 -5.0030309E-07
  -27.77778       5.555557      5.0166892E-07   1.571452      3.2882411E-10
 -5.0166881E-07
  -27.77778       16.66666      2.3579526E-07   1.572186      3.2766362E-10
 -2.3579503E-07
  -27.77778       27.77778      1.5213546E-07   1.572962      3.2951505E-10
 -1.5213510E-07
  -27.77778       38.88889      8.1834941E-08   1.574811      3.2857533E-10
 -8.1834280E-08
  -27.77778       50.00000      1.8183888E-08   1.589243      3.3541298E-10
 -1.8180794E-08
  -16.66667      -50.00000      2.6168053E-08   1.559062     -3.0706038E-10
 -2.6166251E-08
  -16.66667      -38.88889      7.6368863E-08   1.566729     -3.1063432E-10
 -7.6368231E-08
  -16.66667      -27.77778      1.3820843E-07   1.568530     -3.1318059E-10
 -1.3820808E-07
  -16.66667      -16.66667      3.9169958E-08  -1.562790     -3.1362341E-10
  3.9168704E-08
  -16.66667      -5.555557      1.6154390E-06   1.570602     -3.1454966E-10
 -1.6154390E-06
  -16.66667       5.555557      1.6214906E-06   1.570602     -3.1465186E-10
 -1.6214906E-06
  -16.66667       16.66666      3.4964152E-08  -1.561869     -3.1213168E-10
  3.4962760E-08
  -16.66667       27.77778      1.4149305E-07   1.568584     -3.1298703E-10
 -1.4149271E-07
  -16.66667       38.88889      7.8703060E-08   1.566855     -3.1016309E-10
 -7.8702449E-08
  -16.66667       50.00000      2.6941137E-08   1.559474     -3.0503150E-10
 -2.6939411E-08
  -5.555557      -50.00000      1.0335453E-08   1.479181     -9.4555830E-10
 -1.0292109E-08
  -5.555557      -38.88889      2.6835410E-08   1.535340     -9.5128305E-10
 -2.6818544E-08
  -5.555557      -27.77778      9.4417715E-08   1.560698     -9.5348607E-10
 -9.4412897E-08
  -5.555557      -16.66667      5.2739580E-07   1.568982     -9.5702579E-10
 -5.2739495E-07
  -5.555557      -5.555557      6.7964615E-06   1.570655     -9.5736752E-10
 -6.7964615E-06
  -5.555557       5.555557      6.8247327E-06   1.570656     -9.5725683E-10
 -6.8247327E-06
  -5.555557       16.66666      5.4502402E-07   1.569039     -9.5771291E-10
 -5.4502317E-07
  -5.555557       27.77778      1.0112878E-07   1.561372     -9.5304264E-10
 -1.0112429E-07
  -5.555557       38.88889      2.9754489E-08   1.538879     -9.4953267E-10
 -2.9739335E-08
  -5.555557       50.00000      1.1522245E-08   1.488493     -9.4724717E-10
 -1.1483243E-08
   5.555557      -50.00000      1.5359150E-08  -1.467399     -1.5852610E-09
  1.5277122E-08
   5.555557      -38.88889      3.4686146E-08  -1.524902     -1.5913560E-09
  3.4649620E-08
   5.555557      -27.77778      1.0721823E-07  -1.555915     -1.5954414E-09
  1.0720635E-07
   5.555557      -16.66667      5.5499879E-07  -1.567918     -1.5972190E-09
  5.5499652E-07
   5.555557      -5.555557      6.8483719E-06  -1.570563     -1.5998701E-09
  6.8483719E-06
   5.555557       5.555557      6.8357085E-06  -1.570562     -1.6002590E-09
  6.8357085E-06
   5.555557       16.66666      5.3794190E-07  -1.567828     -1.5968588E-09
  5.3793951E-07
   5.555557       27.77778      1.0057198E-07  -1.554932     -1.5954618E-09
  1.0055933E-07
   5.555557       38.88889      3.1620328E-08  -1.520463     -1.5908758E-09
  3.1580282E-08
   5.555557       50.00000      1.4178694E-08  -1.458851     -1.5839278E-09
  1.4089944E-08
   16.66666      -50.00000      3.0674872E-08  -1.498310     -2.2215627E-09
  3.0594322E-08
   16.66666      -38.88889      8.3200192E-08  -1.544026     -2.2270734E-09
  8.3170377E-08
   16.66666      -27.77778      1.4669776E-07  -1.555567     -2.2340043E-09
  1.4668075E-07
   16.66666      -16.66667      2.7528827E-08   1.489439     -2.2372095E-09
 -2.7437769E-08
   16.66666      -5.555557      1.6322857E-06  -1.569424     -2.2404725E-09
  1.6322841E-06
   16.66666       5.555557      1.6267945E-06  -1.569419     -2.2411681E-09
  1.6267929E-06
   16.66666       16.66666      3.1039669E-08   1.498666     -2.2369606E-09
 -3.0958958E-08
   16.66666       27.77778      1.4354688E-07  -1.555234     -2.2338107E-09
  1.4352950E-07
   16.66666       38.88889      8.0897323E-08  -1.543234     -2.2294397E-09
  8.0866599E-08
   16.66666       50.00000      2.9931446E-08  -1.496506     -2.2215829E-09
  2.9848888E-08
   27.77778      -50.00000      2.1903402E-08  -1.439985     -2.8570506E-09
  2.1716268E-08
   27.77778      -38.88889      8.5839801E-08  -1.537426     -2.8639431E-09
  8.5792010E-08
   27.77778      -27.77778      1.5698143E-07  -1.552513     -2.8699656E-09
  1.5695520E-07
   27.77778      -16.66667      2.4108147E-07  -1.558875     -2.8739950E-09
  2.4106433E-07
   27.77778      -5.555557      5.0794256E-07  -1.565133     -2.8764235E-09
  5.0793443E-07
   27.77778       5.555557      5.0664033E-07  -1.565118     -2.8768041E-09
  5.0663215E-07
   27.77778       16.66666      2.3921859E-07  -1.558780     -2.8745151E-09
  2.3920131E-07
   27.77778       27.77778      1.5450600E-07  -1.552214     -2.8709506E-09
  1.5447932E-07
   27.77778       38.88889      8.4544659E-08  -1.536920     -2.8634999E-09
  8.4496151E-08
   27.77778       50.00000      2.1859666E-08  -1.439688     -2.8577749E-09
  2.1672058E-08
   38.88889      -50.00000      5.6800872E-08  -1.509470     -3.4812198E-09
  5.6694091E-08
   38.88889      -38.88889      4.7957332E-08  -1.497821     -3.4965781E-09
  4.7829694E-08
   38.88889      -27.77778      1.1892527E-07  -1.541330     -3.5037502E-09
  1.1887364E-07
   38.88889      -16.66667      1.8892638E-07  -1.552240     -3.5054990E-09
  1.8889385E-07
   38.88889      -5.555557      2.1723444E-07  -1.554644     -3.5086491E-09
  2.1720611E-07
   38.88889       5.555557      2.1669919E-07  -1.554600     -3.5094858E-09
  2.1667077E-07
   38.88889       16.66666      1.8794398E-07  -1.552131     -3.5077616E-09
  1.8791124E-07
   38.88889       27.77778      1.1799973E-07  -1.541118     -3.5015444E-09
  1.1794776E-07
   38.88889       38.88889      4.7673264E-08  -1.497407     -3.4955587E-09
  4.7544940E-08
   38.88889       50.00000      5.6172773E-08  -1.508765     -3.4822594E-09
  5.6064732E-08
   50.00000      -50.00000      5.3952906E-08  -1.494596     -4.1072461E-09
  5.3796345E-08
   50.00000      -38.88889      7.2362177E-08  -1.513874     -4.1168273E-09
  7.2244973E-08
   50.00000      -27.77778      3.7877971E-08  -1.461484     -4.1323047E-09
  3.7651890E-08
   50.00000      -16.66667      8.7228543E-08  -1.523347     -4.1373749E-09
  8.7130367E-08
   50.00000      -5.555557      1.1710937E-07  -1.535464     -4.1368824E-09
  1.1703628E-07
   50.00000       5.555557      1.1697522E-07  -1.535407     -4.1388559E-09
  1.1690197E-07
   50.00000       16.66666      8.6986596E-08  -1.523230     -4.1360870E-09
  8.6888207E-08
   50.00000       27.77778      3.7861305E-08  -1.461435     -4.1323154E-09
  3.7635122E-08
   50.00000       38.88889      7.1876208E-08  -1.513480     -4.1174575E-09
  7.1758173E-08
   50.00000       50.00000      5.3542941E-08  -1.494038     -4.1058543E-09
  5.3385282E-08
           1           2          12          11
           2           3          13          12
           3           4          14          13
           4           5          15          14
           5           6          16          15
           6           7          17          16
           7           8          18          17
           8           9          19          18
           9          10          20          19
          11          12          22          21
          12          13          23          22
          13          14          24          23
          14          15          25          24
          15          16          26          25
          16          17          27          26
          17          18          28          27
          18          19          29          28
          19          20          30          29
          21          22          32          31
          22          23          33          32
          23          24          34          33
          24          25          35          34
          25          26          36          35
          26          27          37          36
          27          28          38          37
          28          29          39          38
          29          30          40          39
          31          32          42          41
          32          33          43          42
          33          34          44          43
          34          35          45          44
          35          36          46          45
          36          37          47          46
          37          38          48          47
          38          39          49          48
          39          40          50          49
          41          42          52          51
          42          43          53          52
          43          44          54          53
          44          45          55          54
          45          46          56          55
          46          47          57          56
          47          48          58          57
          48          49          59          58
          49          50          60          59
          51          52          62          61
          52          53          63          62
          53          54          64          63
          54          55          65          64
          55          56          66          65
          56          57          67          66
          57          58          68          67
          58          59          69          68
          59          60          70          69
          61          62          72          71
          62          63          73          72
          63          64          74          73
          64          65          75          74
          65          66          76          75
          66          67          77          76
          67          68          78          77
          68          69          79          78
          69          70          80          79
          71          72          82          81
          72          73          83          82
          73          74          84          83
          74          75          85          84
          75          76          86          85
          76          77          87          86
          77          78          88          87
          78          79          89          88
          79          80          90          89
          81          82          92          91
          82          83          93          92
          83          84          94          93
          84          85          95          94
          85          86          96          95
          86          87          97          96
          87          88          98          97
          88          89          99          98
          89          90         100          99
