 VARIABLES="X" "Y" "abs(eta) (m)" "angle(phi) (rad)" "PRE1" "PRE2"
ZONE N=    100 ,E =      81 ,F=FEPOINT,ET=QUADRILATERAL
  -50.00000      -50.00000      2.8844420E-07  -1.662700      2.6471868E-08
  2.8722690E-07
  -50.00000      -38.88889      3.0531763E-07  -1.674744      3.1679978E-08
  3.0366962E-07
  -50.00000      -27.77778      4.0319737E-08  -2.725814      3.6884582E-08
  1.6285229E-08
  -50.00000      -16.66667      9.5377473E-08  -2.027802      4.2086523E-08
  8.5589640E-08
  -50.00000      -5.555557      6.3368269E-08   2.412201      4.7246111E-08
 -4.2229644E-08
  -50.00000       5.555557      2.5572604E-07   1.776981      5.2354064E-08
 -2.5030951E-07
  -50.00000       16.66666      3.8021480E-07   1.722367      5.7408865E-08
 -3.7585571E-07
  -50.00000       27.77778      3.1183103E-07   1.772260      6.2398463E-08
 -3.0552417E-07
  -50.00000       38.88889      5.8809104E-07   1.685435      6.7270463E-08
 -5.8423092E-07
  -50.00000       50.00000      5.6115329E-07   1.699666      7.2115476E-08
 -5.5650008E-07
  -38.88889      -50.00000      4.3068138E-07  -1.632662      2.6627452E-08
  4.2985747E-07
  -38.88889      -38.88889      2.2954640E-07  -1.709916      3.1831590E-08
  2.2732861E-07
  -38.88889      -27.77778      5.2894478E-07  -1.640939      3.7071370E-08
  5.2764409E-07
  -38.88889      -16.66667      4.9496822E-07  -1.656340      4.2289699E-08
  4.9315832E-07
  -38.88889      -5.555557      1.0086380E-07  -2.060418      4.7435453E-08
  8.9013390E-08
  -38.88889       5.555557      4.1819538E-07   1.696852      5.2576365E-08
 -4.1487721E-07
  -38.88889       16.66666      8.0990026E-07   1.641987      5.7608986E-08
 -8.0784878E-07
  -38.88889       27.77778      8.2942432E-07   1.646342      6.2599860E-08
 -8.2705861E-07
  -38.88889       38.88889      5.2154485E-07   1.700697      6.7558560E-08
 -5.1715074E-07
  -38.88889       50.00000      7.1536152E-07   1.672116      7.2356293E-08
 -7.1169285E-07
  -27.77778      -50.00000      1.4722715E-07  -1.752932      2.6667255E-08
  1.4479190E-07
  -27.77778      -38.88889      7.9784820E-07  -1.610890      3.1980420E-08
  7.9720701E-07
  -27.77778      -27.77778      1.0947468E-06  -1.604797      3.7215315E-08
  1.0941141E-06
  -27.77778      -16.66667      9.9174986E-07  -1.613577      4.2414808E-08
  9.9084241E-07
  -27.77778      -5.555557      6.4281738E-07  -1.644944      4.7619796E-08
  6.4105114E-07
  -27.77778       5.555557      1.0010450E-06   1.623500      5.2734027E-08
 -9.9965507E-07
  -27.77778       16.66666      1.3380114E-06   1.614006      5.7797056E-08
 -1.3367626E-06
  -27.77778       27.77778      1.4256524E-06   1.614859      6.2797078E-08
 -1.4242687E-06
  -27.77778       38.88889      1.1015151E-06   1.632328      6.7734952E-08
 -1.0994305E-06
  -27.77778       50.00000      4.4055275E-07   1.736359      7.2606468E-08
 -4.3452852E-07
  -16.66667      -50.00000      5.4582659E-07  -1.619855      2.6766926E-08
  5.4516988E-07
  -16.66667      -38.88889      1.3555975E-06  -1.594446      3.2056203E-08
  1.3552185E-06
  -16.66667      -27.77778      1.7621066E-06  -1.591959      3.7288977E-08
  1.7617120E-06
  -16.66667      -16.66667      4.1573884E-07   1.673308      4.2543274E-08
 -4.1355634E-07
  -16.66667      -5.555557      4.1413759E-06  -1.582311      4.7686168E-08
  4.1411013E-06
  -16.66667       5.555557      4.5991769E-06   1.582280      5.2816102E-08
 -4.5988736E-06
  -16.66667       16.66666      6.4896270E-08   2.672737      5.7893068E-08
 -2.9324374E-08
  -16.66667       27.77778      2.1188591E-06   1.600490      6.2908356E-08
 -2.1179251E-06
  -16.66667       38.88889      1.6816820E-06   1.611155      6.7852547E-08
 -1.6803125E-06
  -16.66667       50.00000      8.4256595E-07   1.657204      7.2713789E-08
 -8.3942246E-07
  -5.555557      -50.00000      7.8652715E-07  -1.604893      2.6813026E-08
  7.8606996E-07
  -5.555557      -38.88889      1.5910788E-06  -1.590982      3.2115125E-08
  1.5907547E-06
  -5.555557      -27.77778      3.9021957E-06  -1.580368      3.7351406E-08
  3.9020169E-06
  -5.555557      -16.66667      1.2836867E-05  -1.574113      4.2572925E-08
  1.2836796E-05
  -5.555557      -5.555557      5.4015309E-05  -1.571680      4.7753421E-08
  5.4015287E-05
  -5.555557       5.555557      5.5073353E-05   1.571756      5.2875837E-08
 -5.5073328E-05
  -5.555557       16.66666      1.3388691E-05   1.575125      5.7954512E-08
 -1.3388565E-05
  -5.555557       27.77778      4.3030172E-06   1.585433      6.2978899E-08
 -4.3025561E-06
  -5.555557       38.88889      1.9324511E-06   1.605949      6.7917306E-08
 -1.9312572E-06
  -5.555557       50.00000      1.0893980E-06   1.637642      7.2767783E-08
 -1.0869650E-06
   5.555557      -50.00000      7.8552551E-07  -1.604968      2.6837263E-08
  7.8506696E-07
   5.555557      -38.88889      1.5874728E-06  -1.591014      3.2092828E-08
  1.5871483E-06
   5.555557      -27.77778      3.8921298E-06  -1.580393      3.7352507E-08
  3.8919507E-06
   5.555557      -16.66667      1.2795025E-05  -1.574122      4.2557961E-08
  1.2794954E-05
   5.555557      -5.555557      5.3919681E-05  -1.571682      4.7737508E-08
  5.3919659E-05
   5.555557       5.555557      5.5293265E-05   1.571753      5.2872558E-08
 -5.5293240E-05
   5.555557       16.66666      1.3435174E-05   1.575111      5.7965011E-08
 -1.3435049E-05
   5.555557       27.77778      4.3135665E-06   1.585396      6.2974053E-08
 -4.3131067E-06
   5.555557       38.88889      1.9353245E-06   1.605892      6.7908395E-08
 -1.9341326E-06
   5.555557       50.00000      1.0904558E-06   1.637632      7.2826886E-08
 -1.0880212E-06
   16.66666      -50.00000      5.4397822E-07  -1.620034      2.6773455E-08
  5.4331895E-07
   16.66666      -38.88889      1.3482261E-06  -1.594594      3.2081275E-08
  1.3478443E-06
   16.66666      -27.77778      1.7479625E-06  -1.592141      3.7306819E-08
  1.7475644E-06
   16.66666      -16.66667      4.4200522E-07   1.667142      4.2519261E-08
 -4.3995536E-07
   16.66666      -5.555557      4.0118825E-06  -1.582684      4.7691763E-08
  4.0115992E-06
   16.66666       5.555557      4.7338317E-06   1.581957      5.2833265E-08
 -4.7335370E-06
   16.66666       16.66666      8.4529233E-08   2.325474      5.7907062E-08
 -6.1578923E-08
   16.66666       27.77778      2.1343540E-06   1.600283      6.2924883E-08
 -2.1334263E-06
   16.66666       38.88889      1.6893814E-06   1.610966      6.7844354E-08
 -1.6880185E-06
   16.66666       50.00000      8.4451267E-07   1.657017      7.2724276E-08
 -8.4137554E-07
   27.77778      -50.00000      1.4714162E-07  -1.753057      2.6669909E-08
  1.4470443E-07
   27.77778      -38.88889      7.9071322E-07  -1.611253      3.1981244E-08
  7.9006617E-07
   27.77778      -27.77778      1.0757365E-06  -1.605401      3.7218570E-08
  1.0750924E-06
   27.77778      -16.66667      9.6784402E-07  -1.614653      4.2432415E-08
  9.6691338E-07
   27.77778      -5.555557      5.9235936E-07  -1.651251      4.7606534E-08
  5.9044322E-07
   27.77778       5.555557      1.0521450E-06   1.620922      5.2717496E-08
 -1.0508235E-06
   27.77778       16.66666      1.3630992E-06   1.613195      5.7776926E-08
 -1.3618742E-06
   27.77778       27.77778      1.4392300E-06   1.614442      6.2795564E-08
 -1.4378594E-06
   27.77778       38.88889      1.1088204E-06   1.631913      6.7724848E-08
 -1.1067501E-06
   27.77778       50.00000      4.4088910E-07   1.736260      7.2618590E-08
 -4.3486750E-07
   38.88889      -50.00000      4.2704173E-07  -1.633171      2.6619370E-08
  4.2621127E-07
   38.88889      -38.88889      2.2747051E-07  -1.711241      3.1842045E-08
  2.2523081E-07
   38.88889      -27.77778      5.1904817E-07  -1.642290      3.7076962E-08
  5.1772224E-07
   38.88889      -16.66667      4.7742355E-07  -1.659513      4.2299948E-08
  4.7554599E-07
   38.88889      -5.555557      8.0774925E-08  -2.198587      4.7443816E-08
  6.5373335E-08
   38.88889       5.555557      4.3997932E-07   1.690567      5.2570698E-08
 -4.3682735E-07
   38.88889       16.66666      8.2761983E-07   1.640474      5.7620028E-08
 -8.2561161E-07
   38.88889       27.77778      8.3945400E-07   1.645496      6.2648745E-08
 -8.3711296E-07
   38.88889       38.88889      5.2391977E-07   1.700099      6.7555405E-08
 -5.1954612E-07
   38.88889       50.00000      7.1920010E-07   1.671564      7.2349202E-08
 -7.1555178E-07
   50.00000      -50.00000      2.8528194E-07  -1.663699      2.6465283E-08
  2.8405171E-07
   50.00000      -38.88889      3.0052678E-07  -1.676497      3.1706723E-08
  2.9884950E-07
   50.00000      -27.77778      4.0202089E-08  -2.732852      3.6890324E-08
  1.5978486E-08
   50.00000      -16.66667      9.0371337E-08  -2.055659      4.2120881E-08
  7.9955051E-08
   50.00000      -5.555557      6.9709039E-08   2.315474      4.7244228E-08
 -5.1257519E-08
   50.00000       5.555557      2.6466333E-07   1.769937      5.2357635E-08
 -2.5943277E-07
   50.00000       16.66666      3.8599867E-07   1.720097      5.7416138E-08
 -3.8170455E-07
   50.00000       27.77778      3.1230661E-07   1.771996      6.2412887E-08
 -3.0600663E-07
   50.00000       38.88889      5.9302056E-07   1.684490      6.7277597E-08
 -5.8919193E-07
   50.00000       50.00000      5.6416701E-07   1.698975      7.2116244E-08
 -5.5953882E-07
           1           2          12          11
           2           3          13          12
           3           4          14          13
           4           5          15          14
           5           6          16          15
           6           7          17          16
           7           8          18          17
           8           9          19          18
           9          10          20          19
          11          12          22          21
          12          13          23          22
          13          14          24          23
          14          15          25          24
          15          16          26          25
          16          17          27          26
          17          18          28          27
          18          19          29          28
          19          20          30          29
          21          22          32          31
          22          23          33          32
          23          24          34          33
          24          25          35          34
          25          26          36          35
          26          27          37          36
          27          28          38          37
          28          29          39          38
          29          30          40          39
          31          32          42          41
          32          33          43          42
          33          34          44          43
          34          35          45          44
          35          36          46          45
          36          37          47          46
          37          38          48          47
          38          39          49          48
          39          40          50          49
          41          42          52          51
          42          43          53          52
          43          44          54          53
          44          45          55          54
          45          46          56          55
          46          47          57          56
          47          48          58          57
          48          49          59          58
          49          50          60          59
          51          52          62          61
          52          53          63          62
          53          54          64          63
          54          55          65          64
          55          56          66          65
          56          57          67          66
          57          58          68          67
          58          59          69          68
          59          60          70          69
          61          62          72          71
          62          63          73          72
          63          64          74          73
          64          65          75          74
          65          66          76          75
          66          67          77          76
          67          68          78          77
          68          69          79          78
          69          70          80          79
          71          72          82          81
          72          73          83          82
          73          74          84          83
          74          75          85          84
          75          76          86          85
          76          77          87          86
          77          78          88          87
          78          79          89          88
          79          80          90          89
          81          82          92          91
          82          83          93          92
          83          84          94          93
          84          85          95          94
          85          86          96          95
          86          87          97          96
          87          88          98          97
          88          89          99          98
          89          90         100          99
