 VARIABLES="X" "Y" "abs(eta) (m)" "angle(phi) (rad)" "PRE1" "PRE2"
ZONE N=    100 ,E =      81 ,F=FEPOINT,ET=QUADRILATERAL
  -50.00000      -50.00000      1.0163228E-04  -2.013546      4.3541826E-05
  9.1832619E-05
  -50.00000      -38.88889      1.1313435E-04  -2.071729      5.4332108E-05
  9.9234087E-05
  -50.00000      -27.77778      1.2210399E-04  -2.106318      6.2308420E-05
  1.0500974E-04
  -50.00000      -16.66667      1.2927629E-04  -2.138274      6.9486901E-05
  1.0901345E-04
  -50.00000      -5.555557      1.3355924E-04  -2.160062      7.4225631E-05
  1.1103434E-04
  -50.00000       5.555557      1.3355984E-04  -2.160064      7.4226227E-05
  1.1103466E-04
  -50.00000       16.66666      1.2927782E-04  -2.138280      6.9488371E-05
  1.0901432E-04
  -50.00000       27.77778      1.2210578E-04  -2.106324      6.2310013E-05
  1.0501087E-04
  -50.00000       38.88889      1.1313721E-04  -2.071740      5.4334581E-05
  9.9235993E-05
  -50.00000       50.00000      1.0163515E-04  -2.013557      4.3544129E-05
  9.1834700E-05
  -38.88889      -50.00000      1.1311060E-04  -2.072126      5.4360040E-05
  9.9191704E-05
  -38.88889      -38.88889      1.2545825E-04  -2.120800      6.5575812E-05
  1.0695599E-04
  -38.88889      -27.77778      1.3839356E-04  -2.186360      7.9911093E-05
  1.1299112E-04
  -38.88889      -16.66667      1.5056223E-04  -2.250531      9.4641451E-05
  1.1709817E-04
  -38.88889      -5.555557      1.5831129E-04  -2.289151      1.0419213E-04
  1.1919087E-04
  -38.88889       5.555557      1.5831251E-04  -2.289155      1.0419334E-04
  1.1919145E-04
  -38.88889       16.66666      1.5056532E-04  -2.250540      9.4644463E-05
  1.1709971E-04
  -38.88889       27.77778      1.3839705E-04  -2.186373      7.9914564E-05
  1.1299295E-04
  -38.88889       38.88889      1.2546127E-04  -2.120812      6.5578650E-05
  1.0695781E-04
  -38.88889       50.00000      1.1311421E-04  -2.072140      5.4363201E-05
  9.9194091E-05
  -27.77778      -50.00000      1.2206128E-04  -2.107085      6.2367137E-05
  1.0492519E-04
  -27.77778      -38.88889      1.3834597E-04  -2.186868      7.9940961E-05
  1.1291169E-04
  -27.77778      -27.77778      1.5823360E-04  -2.289827      1.0422143E-04
  1.1906202E-04
  -27.77778      -16.66667      1.7317853E-04  -2.349009      1.2157262E-04
  1.2333247E-04
  -27.77778      -5.555557      1.8863459E-04  -2.412202      1.4064228E-04
  1.2570902E-04
  -27.77778       5.555557      1.8863757E-04  -2.412206      1.4064503E-04
  1.2571042E-04
  -27.77778       16.66666      1.7318361E-04  -2.349020      1.2157751E-04
  1.2333479E-04
  -27.77778       27.77778      1.5823971E-04  -2.289842      1.0422726E-04
  1.1906503E-04
  -27.77778       38.88889      1.3835094E-04  -2.186885      7.9945763E-05
  1.1291439E-04
  -27.77778       50.00000      1.2206454E-04  -2.107097      6.2370062E-05
  1.0492724E-04
  -16.66667      -50.00000      1.2917648E-04  -2.139582      6.9575610E-05
  1.0883839E-04
  -16.66667      -38.88889      1.5043153E-04  -2.251751      9.4701958E-05
  1.1688106E-04
  -16.66667      -27.77778      1.7307665E-04  -2.349843      1.2160392E-04
  1.2315849E-04
  -16.66667      -16.66667      2.1079471E-04  -2.493312      1.6802938E-04
  1.2728134E-04
  -16.66667      -5.555557      2.5336465E-04  -2.598520      2.1691178E-04
  1.3093097E-04
  -16.66667       5.555557      2.5337611E-04  -2.598524      2.1692211E-04
  1.3093607E-04
  -16.66667       16.66666      2.1080181E-04  -2.493313      1.6803516E-04
  1.2728547E-04
  -16.66667       27.77778      1.7308512E-04  -2.349861      1.2161207E-04
  1.2316236E-04
  -16.66667       38.88889      1.5043860E-04  -2.251772      9.4708790E-05
  1.1688464E-04
  -16.66667       50.00000      1.2918102E-04  -2.139599      6.9579968E-05
  1.0884101E-04
  -5.555557      -50.00000      1.3339912E-04  -2.161937      7.4344425E-05
  1.1076206E-04
  -5.555557      -38.88889      1.5808237E-04  -2.291188      1.0428359E-04
  1.1880643E-04
  -5.555557      -27.77778      1.8829833E-04  -2.414705      1.4070519E-04
  1.2513319E-04
  -5.555557      -16.66667      2.5280422E-04  -2.602448      2.1694350E-04
  1.2979018E-04
  -5.555557      -5.555557      4.4653344E-04  -2.829160      4.2491619E-04
  1.3725281E-04
  -5.555557       5.555557      4.4662569E-04  -2.829172      4.2500559E-04
  1.3727622E-04
  -5.555557       16.66666      2.5283868E-04  -2.602462      2.1697479E-04
  1.2980499E-04
  -5.555557       27.77778      1.8831297E-04  -2.414727      1.4071888E-04
  1.2513981E-04
  -5.555557       38.88889      1.5809086E-04  -2.291209      1.0429178E-04
  1.1881053E-04
  -5.555557       50.00000      1.3340451E-04  -2.161957      7.4349635E-05
  1.1076504E-04
   5.555557      -50.00000      1.3335975E-04  -2.162408      7.4374708E-05
  1.1069428E-04
   5.555557      -38.88889      1.5800745E-04  -2.291871      1.0431522E-04
  1.1867892E-04
   5.555557      -27.77778      1.8813352E-04  -2.415964      1.4073939E-04
  1.2484650E-04
   5.555557      -16.66667      2.5225928E-04  -2.606399      2.1698588E-04
  1.2865408E-04
   5.555557      -5.555557      4.4315905E-04  -2.854638      4.2503836E-04
  1.2542856E-04
   5.555557       5.555557      4.4324776E-04  -2.854673      4.2512780E-04
  1.2543891E-04
   5.555557       16.66666      2.5229354E-04  -2.606414      2.1701721E-04
  1.2866844E-04
   5.555557       27.77778      1.8814809E-04  -2.415986      1.4075302E-04
  1.2485306E-04
   5.555557       38.88889      1.5801590E-04  -2.291892      1.0432340E-04
  1.1868299E-04
   5.555557       50.00000      1.3336509E-04  -2.162428      7.4379896E-05
  1.1069723E-04
   16.66666      -50.00000      1.2907840E-04  -2.140897      6.9665810E-05
  1.0866420E-04
   16.66666      -38.88889      1.5023891E-04  -2.253593      9.4795541E-05
  1.1655700E-04
   16.66666      -27.77778      1.7277688E-04  -2.352364      1.2170278E-04
  1.2263883E-04
   16.66666      -16.66667      2.1065502E-04  -2.494988      1.6813098E-04
  1.2691537E-04
   16.66666      -5.555557      2.5172989E-04  -2.610375      2.1703918E-04
  1.2752229E-04
   16.66666       5.555557      2.5174109E-04  -2.610380      2.1704951E-04
  1.2752680E-04
   16.66666       16.66666      2.1066169E-04  -2.494992      1.6813674E-04
  1.2691881E-04
   16.66666       27.77778      1.7278519E-04  -2.352382      1.2171089E-04
  1.2264249E-04
   16.66666       38.88889      1.5024593E-04  -2.253614      9.4802395E-05
  1.1656048E-04
   16.66666       50.00000      1.2908300E-04  -2.140914      6.9670168E-05
  1.0866686E-04
   27.77778      -50.00000      1.2195652E-04  -2.109013      6.2515610E-05
  1.0471481E-04
   27.77778      -38.88889      1.3811245E-04  -2.189422      8.0093661E-05
  1.1251690E-04
   27.77778      -27.77778      1.5785902E-04  -2.293242      1.0437972E-04
  1.1842441E-04
   27.77778      -16.66667      1.7267888E-04  -2.353210      1.2173742E-04
  1.2246630E-04
   27.77778      -5.555557      1.8781067E-04  -2.418499      1.4081337E-04
  1.2427568E-04
   27.77778       5.555557      1.8781361E-04  -2.418504      1.4081612E-04
  1.2427699E-04
   27.77778       16.66666      1.7268393E-04  -2.353220      1.2174230E-04
  1.2246857E-04
   27.77778       27.77778      1.5786500E-04  -2.293257      1.0438554E-04
  1.1842726E-04
   27.77778       38.88889      1.3811734E-04  -2.189440      8.0098514E-05
  1.1251945E-04
   27.77778       50.00000      1.2195973E-04  -2.109025      6.2518535E-05
  1.0471680E-04
   38.88889      -50.00000      1.1294753E-04  -2.074918      5.4557971E-05
  9.8896780E-05
   38.88889      -38.88889      1.2527210E-04  -2.123671      6.5784887E-05
  1.0660885E-04
   38.88889      -27.77778      1.3806645E-04  -2.189937      8.0124875E-05
  1.1243820E-04
   38.88889      -16.66667      1.5011277E-04  -2.254830      9.4859912E-05
  1.1634192E-04
   38.88889      -5.555557      1.5778665E-04  -2.293933      1.0441367E-04
  1.1829798E-04
   38.88889       5.555557      1.5778781E-04  -2.293937      1.0441490E-04
  1.1829846E-04
   38.88889       16.66666      1.5011583E-04  -2.254839      9.4862909E-05
  1.1634341E-04
   38.88889       27.77778      1.3807004E-04  -2.189950      8.0128353E-05
  1.1244012E-04
   38.88889       38.88889      1.2527510E-04  -2.123682      6.5787659E-05
  1.0661066E-04
   38.88889       50.00000      1.1295109E-04  -2.074932      5.4561118E-05
  9.8899109E-05
   50.00000      -50.00000      1.0148162E-04  -2.016950      4.3789176E-05
  9.1547954E-05
   50.00000      -38.88889      1.1292462E-04  -2.075319      5.4586599E-05
  9.8854805E-05
   50.00000      -27.77778      1.2191542E-04  -2.109788      6.2575644E-05
  1.0463106E-04
   50.00000      -16.66667      1.2898206E-04  -2.142220      6.9757429E-05
  1.0849090E-04
   50.00000      -5.555557      1.3320497E-04  -2.164307      7.4498144E-05
  1.1042460E-04
   50.00000       5.555557      1.3320558E-04  -2.164309      7.4498770E-05
  1.1042490E-04
   50.00000       16.66666      1.2898361E-04  -2.142226      6.9758898E-05
  1.0849177E-04
   50.00000       27.77778      1.2191719E-04  -2.109795      6.2577288E-05
  1.0463213E-04
   50.00000       38.88889      1.1292743E-04  -2.075330      5.4589029E-05
  9.8856675E-05
   50.00000       50.00000      1.0148450E-04  -2.016961      4.3791468E-05
  9.1550042E-05
           1           2          12          11
           2           3          13          12
           3           4          14          13
           4           5          15          14
           5           6          16          15
           6           7          17          16
           7           8          18          17
           8           9          19          18
           9          10          20          19
          11          12          22          21
          12          13          23          22
          13          14          24          23
          14          15          25          24
          15          16          26          25
          16          17          27          26
          17          18          28          27
          18          19          29          28
          19          20          30          29
          21          22          32          31
          22          23          33          32
          23          24          34          33
          24          25          35          34
          25          26          36          35
          26          27          37          36
          27          28          38          37
          28          29          39          38
          29          30          40          39
          31          32          42          41
          32          33          43          42
          33          34          44          43
          34          35          45          44
          35          36          46          45
          36          37          47          46
          37          38          48          47
          38          39          49          48
          39          40          50          49
          41          42          52          51
          42          43          53          52
          43          44          54          53
          44          45          55          54
          45          46          56          55
          46          47          57          56
          47          48          58          57
          48          49          59          58
          49          50          60          59
          51          52          62          61
          52          53          63          62
          53          54          64          63
          54          55          65          64
          55          56          66          65
          56          57          67          66
          57          58          68          67
          58          59          69          68
          59          60          70          69
          61          62          72          71
          62          63          73          72
          63          64          74          73
          64          65          75          74
          65          66          76          75
          66          67          77          76
          67          68          78          77
          68          69          79          78
          69          70          80          79
          71          72          82          81
          72          73          83          82
          73          74          84          83
          74          75          85          84
          75          76          86          85
          76          77          87          86
          77          78          88          87
          78          79          89          88
          79          80          90          89
          81          82          92          91
          82          83          93          92
          83          84          94          93
          84          85          95          94
          85          86          96          95
          86          87          97          96
          87          88          98          97
          88          89          99          98
          89          90         100          99
