 VARIABLES="X" "Y" "abs(eta) (m)" "angle(phi) (rad)" "PRE1" "PRE2"
ZONE N=    100 ,E =      81 ,F=FEPOINT,ET=QUADRILATERAL
  -50.00000      -50.00000      5.0795791E-07   1.527294     -2.2090271E-08
 -5.0747735E-07
  -50.00000      -38.88889      4.9884102E-07   1.522767     -2.3949715E-08
 -4.9826576E-07
  -50.00000      -27.77778      4.9669575E-07   1.519559     -2.5438160E-08
 -4.9604392E-07
  -50.00000      -16.66667      4.9215089E-07   1.516966     -2.6479752E-08
 -4.9143802E-07
  -50.00000      -5.555557      4.8722620E-07   1.515248     -2.7050742E-08
 -4.8647468E-07
  -50.00000       5.555557      4.8701588E-07   1.515031     -2.7144367E-08
 -4.8625884E-07
  -50.00000       16.66666      4.9161349E-07   1.516337     -2.6759633E-08
 -4.9088464E-07
  -50.00000       27.77778      4.9605291E-07   1.518558     -2.5901400E-08
 -4.9537624E-07
  -50.00000       38.88889      4.9793340E-07   1.521440     -2.4566411E-08
 -4.9732699E-07
  -50.00000       50.00000      5.0708655E-07   1.525694     -2.2863219E-08
 -5.0657087E-07
  -38.88889      -50.00000      4.9909841E-07   1.523146     -2.3773129E-08
 -4.9853190E-07
  -38.88889      -38.88889      4.9558099E-07   1.518864     -2.5725091E-08
 -4.9491285E-07
  -38.88889      -27.77778      4.8120143E-07   1.514141     -2.7248177E-08
 -4.8042932E-07
  -38.88889      -16.66667      4.6013980E-07   1.509234     -2.8309366E-08
 -4.5926814E-07
  -38.88889      -5.555557      4.4457042E-07   1.505755     -2.8894865E-08
 -4.4363043E-07
  -38.88889       5.555557      4.4417152E-07   1.505480     -2.8990994E-08
 -4.4322439E-07
  -38.88889       16.66666      4.5912722E-07   1.508474     -2.8595471E-08
 -4.5823586E-07
  -38.88889       27.77778      4.7997366E-07   1.513013     -2.7718956E-08
 -4.7917257E-07
  -38.88889       38.88889      4.9451421E-07   1.517434     -2.6375744E-08
 -4.9381032E-07
  -38.88889       50.00000      4.9793107E-07   1.521440     -2.4566013E-08
 -4.9732472E-07
  -27.77778      -50.00000      4.9721092E-07   1.520360     -2.5066864E-08
 -4.9657865E-07
  -27.77778      -38.88889      4.8168590E-07   1.514590     -2.7059496E-08
 -4.8092522E-07
  -27.77778      -27.77778      4.4575302E-07   1.506578     -2.8605919E-08
 -4.4483420E-07
  -27.77778      -16.66667      4.2603966E-07   1.501011     -2.9707067E-08
 -4.2500270E-07
  -27.77778      -5.555557      3.8779893E-07   1.492554     -3.0311334E-08
 -3.8661253E-07
  -27.77778       5.555557      3.8689458E-07   1.492113     -3.0410558E-08
 -3.8569758E-07
  -27.77778       16.66666      4.2440840E-07   1.500043     -3.0003449E-08
 -4.2334653E-07
  -27.77778       27.77778      4.4375636E-07   1.505203     -2.9086747E-08
 -4.4280208E-07
  -27.77778       38.88889      4.7996713E-07   1.513013     -2.7718535E-08
 -4.7916609E-07
  -27.77778       50.00000      4.9605376E-07   1.518559     -2.5900560E-08
 -4.9537709E-07
  -16.66667      -50.00000      4.9321909E-07   1.518222     -2.5918725E-08
 -4.9253759E-07
  -16.66667      -38.88889      4.6146641E-07   1.510241     -2.7927197E-08
 -4.6062058E-07
  -16.66667      -27.77778      4.2710366E-07   1.501650     -2.9508930E-08
 -4.2608303E-07
  -16.66667      -16.66667      3.2759178E-07   1.477190     -3.0620054E-08
 -3.2615762E-07
  -16.66667      -5.555557      2.0475834E-07   1.417659     -3.1233700E-08
 -2.0236213E-07
  -16.66667       5.555557      2.0119072E-07   1.414412     -3.1334952E-08
 -1.9873556E-07
  -16.66667       16.66666      3.2643604E-07   1.475927     -3.0922426E-08
 -3.2496814E-07
  -16.66667       27.77778      4.2438435E-07   1.500039     -3.0003044E-08
 -4.2332246E-07
  -16.66667       38.88889      4.5910346E-07   1.508472     -2.8594661E-08
 -4.5821210E-07
  -16.66667       50.00000      4.9160536E-07   1.516339     -2.6758457E-08
 -4.9087657E-07
  -5.555557      -50.00000      4.8888887E-07   1.516976     -2.6299571E-08
 -4.8818094E-07
  -5.555557      -38.88889      4.4692055E-07   1.507394     -2.8316686E-08
 -4.4602260E-07
  -5.555557      -27.77778      3.9131703E-07   1.494279     -2.9913195E-08
 -3.9017203E-07
  -5.555557      -16.66667      2.1168411E-07   1.423675     -3.1030925E-08
 -2.0939734E-07
  -5.555557      -5.555557      2.8426385E-07  -1.459245     -3.1644195E-08
  2.8249704E-07
  -5.555557       5.555557      3.2149882E-07  -1.471890     -3.1746392E-08
  3.1992758E-07
  -5.555557       16.66666      2.0097379E-07   1.414244     -3.1334572E-08
 -1.9851602E-07
  -5.555557       27.77778      3.8679374E-07   1.492095     -3.0409694E-08
 -3.8559648E-07
  -5.555557       38.88889      4.4412474E-07   1.505476     -2.8989801E-08
 -4.4317758E-07
  -5.555557       50.00000      4.8699826E-07   1.515033     -2.7142814E-08
 -4.8624128E-07
   5.555557      -50.00000      4.8909459E-07   1.517191     -2.6205498E-08
 -4.8839206E-07
   5.555557      -38.88889      4.4730476E-07   1.507665     -2.8220132E-08
 -4.4641368E-07
   5.555557      -27.77778      3.9217323E-07   1.494702     -2.9813449E-08
 -3.9103836E-07
   5.555557      -16.66667      2.1504940E-07   1.426472     -3.0929286E-08
 -2.1281359E-07
   5.555557      -5.555557      2.4763472E-07  -1.443078     -3.1541582E-08
  2.4561774E-07
   5.555557       5.555557      2.8484953E-07  -1.459477     -3.1643808E-08
  2.8308642E-07
   5.555557       16.66666      2.0433197E-07   1.417341     -3.1232883E-08
 -2.0193083E-07
   5.555557       27.77778      3.8764952E-07   1.492527     -3.0309966E-08
 -3.8646274E-07
   5.555557       38.88889      4.4450863E-07   1.505750     -2.8893208E-08
 -4.4356861E-07
   5.555557       50.00000      4.8720409E-07   1.515249     -2.7048754E-08
 -4.8645268E-07
   16.66666      -50.00000      4.9374989E-07   1.518849     -2.5637702E-08
 -4.9308386E-07
   16.66666      -38.88889      4.6244483E-07   1.510992     -2.7639903E-08
 -4.6161810E-07
   16.66666      -27.77778      4.2866779E-07   1.502599     -2.9211240E-08
 -4.2767135E-07
   16.66666      -16.66667      3.2859899E-07   1.478405     -3.0316428E-08
 -3.2719751E-07
   16.66666      -5.555557      2.1484711E-07   1.426337     -3.0928827E-08
 -2.1260924E-07
   16.66666       5.555557      2.1127256E-07   1.423391     -3.1030066E-08
 -2.0898142E-07
   16.66666       16.66666      3.2744094E-07   1.477150     -3.0618732E-08
 -3.2600624E-07
   16.66666       27.77778      4.2594749E-07   1.501000     -2.9705275E-08
 -4.2491041E-07
   16.66666       38.88889      4.6008086E-07   1.509230     -2.8307394E-08
 -4.5920919E-07
   16.66666       50.00000      4.9213588E-07   1.516969     -2.6477409E-08
 -4.9142312E-07
   27.77778      -50.00000      4.9785717E-07   1.521361     -2.4601666E-08
 -4.9724895E-07
   27.77778      -38.88889      4.8288302E-07   1.515710     -2.6586649E-08
 -4.8215054E-07
   27.77778      -27.77778      4.4767407E-07   1.507934     -2.8123152E-08
 -4.4678984E-07
   27.77778      -16.66667      4.2864662E-07   1.502597     -2.9210760E-08
 -4.2765015E-07
   27.77778      -5.555557      3.9207819E-07   1.494686     -2.9812554E-08
 -3.9094311E-07
   27.77778       5.555557      3.9117327E-07   1.494255     -2.9911842E-08
 -3.9002796E-07
   27.77778       16.66666      4.2701370E-07   1.501640     -2.9507239E-08
 -4.2599299E-07
   27.77778       27.77778      4.4567665E-07   1.506571     -2.8603885E-08
 -4.4475780E-07
   27.77778       38.88889      4.8116306E-07   1.514141     -2.7245797E-08
 -4.8039107E-07
   27.77778       50.00000      4.9669899E-07   1.519565     -2.5435458E-08
 -4.9604728E-07
   38.88889      -50.00000      4.9999375E-07   1.524471     -2.3153916E-08
 -4.9945737E-07
   38.88889      -38.88889      4.9664220E-07   1.520292     -2.5071769E-08
 -4.9600897E-07
   38.88889      -27.77778      4.8287671E-07   1.515710     -2.6586266E-08
 -4.8214429E-07
   38.88889      -16.66667      4.6242187E-07   1.510990     -2.7639123E-08
 -4.6159514E-07
   38.88889      -5.555557      4.4725959E-07   1.507661     -2.8218896E-08
 -4.4636849E-07
   38.88889       5.555557      4.4685999E-07   1.507389     -2.8315062E-08
 -4.4596200E-07
   38.88889       16.66666      4.6140855E-07   1.510238     -2.7925182E-08
 -4.6056275E-07
   38.88889       27.77778      4.8164839E-07   1.514591     -2.7057085E-08
 -4.8088782E-07
   38.88889       38.88889      4.9557502E-07   1.518869     -2.5722382E-08
 -4.9490700E-07
   38.88889       50.00000      4.9882556E-07   1.522771     -2.3946793E-08
 -4.9825042E-07
   50.00000      -50.00000      5.0882170E-07   1.528895     -2.1313994E-08
 -5.0837508E-07
   50.00000      -38.88889      4.9999176E-07   1.524472     -2.3153548E-08
 -4.9945538E-07
   50.00000      -27.77778      4.9785825E-07   1.521363     -2.4600892E-08
 -4.9725008E-07
   50.00000      -16.66667      4.9374324E-07   1.518850     -2.5636506E-08
 -4.9307721E-07
   50.00000      -5.555557      4.8907799E-07   1.517192     -2.6203928E-08
 -4.8837552E-07
   50.00000       5.555557      4.8886801E-07   1.516977     -2.6297622E-08
 -4.8816020E-07
   50.00000       16.66666      4.9320482E-07   1.518225     -2.5916375E-08
 -4.9252344E-07
   50.00000       27.77778      4.9721496E-07   1.520366     -2.5064129E-08
 -4.9658280E-07
   50.00000       38.88889      4.9908294E-07   1.523151     -2.3770205E-08
 -4.9851656E-07
   50.00000       50.00000      5.0794904E-07   1.527300     -2.2086965E-08
 -5.0746860E-07
           1           2          12          11
           2           3          13          12
           3           4          14          13
           4           5          15          14
           5           6          16          15
           6           7          17          16
           7           8          18          17
           8           9          19          18
           9          10          20          19
          11          12          22          21
          12          13          23          22
          13          14          24          23
          14          15          25          24
          15          16          26          25
          16          17          27          26
          17          18          28          27
          18          19          29          28
          19          20          30          29
          21          22          32          31
          22          23          33          32
          23          24          34          33
          24          25          35          34
          25          26          36          35
          26          27          37          36
          27          28          38          37
          28          29          39          38
          29          30          40          39
          31          32          42          41
          32          33          43          42
          33          34          44          43
          34          35          45          44
          35          36          46          45
          36          37          47          46
          37          38          48          47
          38          39          49          48
          39          40          50          49
          41          42          52          51
          42          43          53          52
          43          44          54          53
          44          45          55          54
          45          46          56          55
          46          47          57          56
          47          48          58          57
          48          49          59          58
          49          50          60          59
          51          52          62          61
          52          53          63          62
          53          54          64          63
          54          55          65          64
          55          56          66          65
          56          57          67          66
          57          58          68          67
          58          59          69          68
          59          60          70          69
          61          62          72          71
          62          63          73          72
          63          64          74          73
          64          65          75          74
          65          66          76          75
          66          67          77          76
          67          68          78          77
          68          69          79          78
          69          70          80          79
          71          72          82          81
          72          73          83          82
          73          74          84          83
          74          75          85          84
          75          76          86          85
          76          77          87          86
          77          78          88          87
          78          79          89          88
          79          80          90          89
          81          82          92          91
          82          83          93          92
          83          84          94          93
          84          85          95          94
          85          86          96          95
          86          87          97          96
          87          88          98          97
          88          89          99          98
          89          90         100          99
