 VARIABLES="X" "Y" "abs(eta) (m)" "angle(phi) (rad)" "PRE1" "PRE2"
ZONE N=    100 ,E =      81 ,F=FEPOINT,ET=QUADRILATERAL
  -50.00000      -50.00000      9.4216102E-04   2.440476      7.1992644E-04
 -6.0776091E-04
  -50.00000      -38.88889      8.8591210E-04   2.017361      3.8259855E-04
 -7.9903606E-04
  -50.00000      -27.77778      8.3227560E-04   1.619873      4.0828749E-05
 -8.3127356E-04
  -50.00000      -16.66667      7.9976523E-04   1.295676     -2.1726674E-04
 -7.6968799E-04
  -50.00000      -5.555557      7.8814378E-04   1.111946     -3.4908243E-04
 -7.0662017E-04
  -50.00000       5.555557      7.8814238E-04   1.111925     -3.4909713E-04
 -7.0661138E-04
  -50.00000       16.66666      7.9975993E-04   1.295616     -2.1731119E-04
 -7.6966995E-04
  -50.00000       27.77778      8.3226548E-04   1.619790      4.0759496E-05
 -8.3126681E-04
  -50.00000       38.88889      8.8589825E-04   2.017268      3.8251822E-04
 -7.9905917E-04
  -50.00000       50.00000      9.4215042E-04   2.440379      7.1985909E-04
 -6.0782424E-04
  -38.88889      -50.00000      8.8436523E-04   2.017649      3.8216054E-04
 -7.9753069E-04
  -38.88889      -38.88889      8.1313681E-04   1.464448     -8.6312830E-05
 -8.0854289E-04
  -38.88889      -27.77778      7.7941851E-04  0.9107483     -4.7790419E-04
 -6.1571161E-04
  -38.88889      -16.66667      7.9354376E-04  0.4556771     -7.1257312E-04
 -3.4921514E-04
  -38.88889      -5.555557      8.2123926E-04  0.2007562     -8.0474553E-04
 -1.6376366E-04
  -38.88889       5.555557      8.2124269E-04  0.2007254     -8.0475397E-04
 -1.6373953E-04
  -38.88889       16.66666      7.9354935E-04  0.4555917     -7.1260799E-04
 -3.4915679E-04
  -38.88889       27.77778      7.7941548E-04  0.9106291     -4.7797570E-04
 -6.1565224E-04
  -38.88889       38.88889      8.1312266E-04   1.464318     -8.6416228E-05
 -8.0851762E-04
  -38.88889       50.00000      8.8434783E-04   2.017530      3.8205777E-04
 -7.9756061E-04
  -27.77778      -50.00000      8.2865870E-04   1.620519      4.1186344E-05
 -8.2763453E-04
  -27.77778      -38.88889      7.7701069E-04  0.9107807     -4.7640796E-04
 -6.1382493E-04
  -27.77778      -27.77778      8.1803487E-04  0.2000408     -8.0172200E-04
 -1.6255112E-04
  -27.77778      -16.66667      9.3415246E-04 -0.3610712     -8.7391731E-04
  3.3001415E-04
  -27.77778      -5.555557      1.0384960E-03 -0.6735656     -8.1169110E-04
  6.4778974E-04
  -27.77778       5.555557      1.0385121E-03 -0.6736048     -8.1167824E-04
  6.4783159E-04
  -27.77778       16.66666      9.3418336E-04 -0.3611786     -8.7391079E-04
  3.3011896E-04
  -27.77778       27.77778      8.1805582E-04  0.1998858     -8.0176775E-04
 -1.6243101E-04
  -27.77778       38.88889      7.7700656E-04  0.9106137     -4.7650794E-04
 -6.1374210E-04
  -27.77778       50.00000      8.2863955E-04   1.620370      4.1062125E-05
 -8.2762155E-04
  -16.66667      -50.00000      7.9356169E-04   1.296435     -2.1500168E-04
 -7.6388114E-04
  -16.66667      -38.88889      7.8783173E-04  0.4548669     -7.0772460E-04
 -3.4612819E-04
  -16.66667      -27.77778      9.3012356E-04 -0.3625258     -8.6966931E-04
  3.2985621E-04
  -16.66667      -16.66667      1.1885720E-03  -1.025553     -6.1642437E-04
  1.0162306E-03
  -16.66667      -5.555557      1.4582302E-03  -1.456610     -1.6614802E-04
  1.4487340E-03
  -16.66667       5.555557      1.4582907E-03  -1.456670     -1.6606766E-04
  1.4488042E-03
  -16.66667       16.66666      1.1886552E-03  -1.025690     -6.1632798E-04
  1.0163862E-03
  -16.66667       27.77778      9.3017501E-04 -0.3627036     -8.6965878E-04
  3.3002911E-04
  -16.66667       38.88889      7.8784500E-04  0.4546684     -7.0780521E-04
 -3.4599353E-04
  -16.66667       50.00000      7.9354597E-04   1.296256     -2.1513355E-04
 -7.6382770E-04
  -5.555557      -50.00000      7.7897578E-04   1.112580     -3.4457893E-04
 -6.9861906E-04
  -5.555557      -38.88889      8.1163977E-04  0.1984970     -7.9570245E-04
 -1.6005219E-04
  -5.555557      -27.77778      1.0288350E-03 -0.6774359     -8.0165011E-04
  6.4487086E-04
  -5.555557      -16.66667      1.4478693E-03  -1.460445     -1.5945084E-04
  1.4390625E-03
  -5.555557      -5.555557      2.4189344E-03  -2.201453      1.4263861E-03
  1.9536291E-03
  -5.555557       5.555557      2.4193800E-03  -2.201597      1.4269304E-03
  1.9537832E-03
  -5.555557       16.66666      1.4480492E-03  -1.460627     -1.5920820E-04
  1.4392704E-03
  -5.555557       27.77778      1.0289160E-03 -0.6776330     -8.0158614E-04
  6.4507965E-04
  -5.555557       38.88889      8.1166811E-04  0.1982796     -7.9576502E-04
 -1.5988476E-04
  -5.555557       50.00000      7.7896402E-04   1.112379     -3.4471447E-04
 -6.9853914E-04
   5.555557      -50.00000      7.7668106E-04   1.112718     -3.4346787E-04
 -6.9660845E-04
   5.555557      -38.88889      8.0844387E-04  0.1977004     -7.9269608E-04
 -1.5879050E-04
   5.555557      -27.77778      1.0240253E-03 -0.6794402     -7.9661445E-04
  6.4345408E-04
   5.555557      -16.66667      1.4375886E-03  -1.464403     -1.5266170E-04
  1.4294598E-03
   5.555557      -5.555557      2.3668194E-03  -2.222009      1.4346512E-03
  1.8824480E-03
   5.555557       5.555557      2.3672238E-03  -2.222168      1.4351954E-03
  1.8825416E-03
   5.555557       16.66666      1.4377643E-03  -1.464586     -1.5241870E-04
  1.4296625E-03
   5.555557       27.77778      1.0241061E-03 -0.6796373     -7.9655042E-04
  6.4366189E-04
   5.555557       38.88889      8.0847146E-04  0.1974827     -7.9275767E-04
 -1.5862340E-04
   5.555557       50.00000      7.7666994E-04   1.112517     -3.4360326E-04
 -6.9652929E-04
   16.66666      -50.00000      7.8735064E-04   1.297146     -2.1277991E-04
 -7.5805391E-04
   16.66666      -38.88889      7.7926851E-04  0.4535410     -7.0048543E-04
 -3.4143752E-04
   16.66666      -27.77778      9.1807637E-04 -0.3670776     -8.5691427E-04
  3.2948781E-04
   16.66666      -16.66667      1.1698689E-03  -1.033503     -5.9875340E-04
  1.0050312E-03
   16.66666      -5.555557      1.4273844E-03  -1.468488     -1.4577927E-04
  1.4199207E-03
   16.66666       5.555557      1.4274422E-03  -1.468549     -1.4569853E-04
  1.4199871E-03
   16.66666       16.66666      1.1699504E-03  -1.033640     -5.9865724E-04
  1.0051832E-03
   16.66666       27.77778      9.1812696E-04 -0.3672567     -8.5690245E-04
  3.2965935E-04
   16.66666       38.88889      7.7928044E-04  0.4533423     -7.0056401E-04
 -3.4130356E-04
   16.66666       50.00000      7.8733388E-04   1.296967     -2.1291076E-04
 -7.5799978E-04
   27.77778      -50.00000      8.1960351E-04   1.622077      4.2011139E-05
 -8.1852608E-04
   27.77778      -38.88889      7.6496229E-04  0.9108245     -4.6899426E-04
 -6.0432748E-04
   27.77778      -27.77778      8.0205587E-04  0.1960559     -7.8669051E-04
 -1.5624236E-04
   27.77778      -16.66667      9.1407326E-04 -0.3686585     -8.5265818E-04
  3.2939942E-04
   27.77778      -5.555557      1.0144457E-03 -0.6835880     -7.8651152E-04
  6.4070243E-04
   27.77778       5.555557      1.0144613E-03 -0.6836276     -7.8649819E-04
  6.4074347E-04
   27.77778       16.66666      9.1410300E-04 -0.3687665     -8.5265032E-04
  3.2950222E-04
   27.77778       27.77778      8.0207613E-04  0.1959000     -7.8673474E-04
 -1.5612361E-04
   27.77778       38.88889      7.6495780E-04  0.9106568     -4.6909283E-04
 -6.0424529E-04
   27.77778       50.00000      8.1958459E-04   1.621927      4.1888063E-05
 -8.1851345E-04
   38.88889      -50.00000      8.7352499E-04   2.019604      3.7901517E-04
 -7.8701548E-04
   38.88889      -38.88889      7.9926330E-04   1.466433     -8.3262217E-05
 -7.9491461E-04
   38.88889      -27.77778      7.6255109E-04  0.9108090     -4.6752527E-04
 -6.0241536E-04
   38.88889      -16.66667      7.7356095E-04  0.4525837     -6.9567905E-04
 -3.3827094E-04
   38.88889      -5.555557      7.9886813E-04  0.1951762     -7.8370044E-04
 -1.5493199E-04
   38.88889       5.555557      7.9887192E-04  0.1951451     -7.8370894E-04
 -1.5490838E-04
   38.88889       16.66666      7.7356579E-04  0.4524979     -6.9571240E-04
 -3.3821334E-04
   38.88889       27.77778      7.6254777E-04  0.9106897     -4.6759515E-04
 -6.0235691E-04
   38.88889       38.88889      7.9924875E-04   1.466303     -8.3363971E-05
 -7.9488929E-04
   38.88889       50.00000      8.7350665E-04   2.019485      3.7891368E-04
 -7.8704400E-04
   50.00000      -50.00000      9.3008345E-04   2.441981      7.1159948E-04
 -5.9890014E-04
   50.00000      -38.88889      8.7197364E-04   2.019874      3.7855437E-04
 -7.8551553E-04
   50.00000      -27.77778      8.1597600E-04   1.622676      4.2313848E-05
 -8.1487815E-04
   50.00000      -16.66667      7.8113121E-04   1.297809     -2.1060064E-04
 -7.5220567E-04
   50.00000      -5.555557      7.6749705E-04   1.113190     -3.3908169E-04
 -6.8853126E-04
   50.00000       5.555557      7.6749548E-04   1.113167     -3.3909673E-04
 -6.8852212E-04
   50.00000       16.66666      7.8112574E-04   1.297749     -2.1064408E-04
 -7.5218780E-04
   50.00000       27.77778      8.1596494E-04   1.622594      4.2245767E-05
 -8.1487058E-04
   50.00000       38.88889      8.7196013E-04   2.019781      3.7847550E-04
 -7.8553852E-04
   50.00000       50.00000      9.3007239E-04   2.441884      7.1153295E-04
 -5.9896201E-04
           1           2          12          11
           2           3          13          12
           3           4          14          13
           4           5          15          14
           5           6          16          15
           6           7          17          16
           7           8          18          17
           8           9          19          18
           9          10          20          19
          11          12          22          21
          12          13          23          22
          13          14          24          23
          14          15          25          24
          15          16          26          25
          16          17          27          26
          17          18          28          27
          18          19          29          28
          19          20          30          29
          21          22          32          31
          22          23          33          32
          23          24          34          33
          24          25          35          34
          25          26          36          35
          26          27          37          36
          27          28          38          37
          28          29          39          38
          29          30          40          39
          31          32          42          41
          32          33          43          42
          33          34          44          43
          34          35          45          44
          35          36          46          45
          36          37          47          46
          37          38          48          47
          38          39          49          48
          39          40          50          49
          41          42          52          51
          42          43          53          52
          43          44          54          53
          44          45          55          54
          45          46          56          55
          46          47          57          56
          47          48          58          57
          48          49          59          58
          49          50          60          59
          51          52          62          61
          52          53          63          62
          53          54          64          63
          54          55          65          64
          55          56          66          65
          56          57          67          66
          57          58          68          67
          58          59          69          68
          59          60          70          69
          61          62          72          71
          62          63          73          72
          63          64          74          73
          64          65          75          74
          65          66          76          75
          66          67          77          76
          67          68          78          77
          68          69          79          78
          69          70          80          79
          71          72          82          81
          72          73          83          82
          73          74          84          83
          74          75          85          84
          75          76          86          85
          76          77          87          86
          77          78          88          87
          78          79          89          88
          79          80          90          89
          81          82          92          91
          82          83          93          92
          83          84          94          93
          84          85          95          94
          85          86          96          95
          86          87          97          96
          87          88          98          97
          88          89          99          98
          89          90         100          99
