 VARIABLES="X" "Y" "abs(eta) (m)" "angle(phi) (rad)" "PRE1" "PRE2"
ZONE N=    100 ,E =      81 ,F=FEPOINT,ET=QUADRILATERAL
  -50.00000      -50.00000      1.2280857E-07   1.566619     -5.1306798E-10
 -1.2280751E-07
  -50.00000      -38.88889      1.2068277E-07   1.566544     -5.1320564E-10
 -1.2068168E-07
  -50.00000      -27.77778      1.2074953E-07   1.566545     -5.1331667E-10
 -1.2074844E-07
  -50.00000      -16.66667      1.1988561E-07   1.566514     -5.1339272E-10
 -1.1988452E-07
  -50.00000      -5.555557      1.1885927E-07   1.566477     -5.1343335E-10
 -1.1885816E-07
  -50.00000       5.555557      1.1884890E-07   1.566476     -5.1343951E-10
 -1.1884779E-07
  -50.00000       16.66666      1.1986525E-07   1.566513     -5.1341131E-10
 -1.1986415E-07
  -50.00000       27.77778      1.2074524E-07   1.566545     -5.1334792E-10
 -1.2074415E-07
  -50.00000       38.88889      1.2064322E-07   1.566542     -5.1324983E-10
 -1.2064213E-07
  -50.00000       50.00000      1.2277411E-07   1.566617     -5.1312377E-10
 -1.2277305E-07
  -38.88889      -50.00000      1.2069337E-07   1.566544     -5.1319282E-10
 -1.2069228E-07
  -38.88889      -38.88889      1.2050607E-07   1.566536     -5.1333876E-10
 -1.2050498E-07
  -38.88889      -27.77778      1.1741365E-07   1.566423     -5.1344801E-10
 -1.1741253E-07
  -38.88889      -16.66667      1.1270296E-07   1.566240     -5.1352045E-10
 -1.1270179E-07
  -38.88889      -5.555557      1.0931904E-07   1.566099     -5.1355853E-10
 -1.0931783E-07
  -38.88889       5.555557      1.0930115E-07   1.566098     -5.1356536E-10
 -1.0929995E-07
  -38.88889       16.66666      1.1262726E-07   1.566237     -5.1353849E-10
 -1.1262609E-07
  -38.88889       27.77778      1.1734113E-07   1.566420     -5.1347887E-10
 -1.1734001E-07
  -38.88889       38.88889      1.2048066E-07   1.566535     -5.1338228E-10
 -1.2047957E-07
  -38.88889       50.00000      1.2064251E-07   1.566542     -5.1324972E-10
 -1.2064142E-07
  -27.77778      -50.00000      1.2075276E-07   1.566546     -5.1329102E-10
 -1.2075166E-07
  -27.77778      -38.88889      1.1744072E-07   1.566424     -5.1343524E-10
 -1.1743960E-07
  -27.77778      -27.77778      1.0937470E-07   1.566101     -5.1353966E-10
 -1.0937350E-07
  -27.77778      -16.66667      1.0529548E-07   1.565919     -5.1359766E-10
 -1.0529423E-07
  -27.77778      -5.555557      9.6208126E-08   1.565458     -5.1363330E-10
 -9.6206755E-08
  -27.77778       5.555557      9.6097196E-08   1.565451     -5.1364046E-10
 -9.6095825E-08
  -27.77778       16.66666      1.0515009E-07   1.565912     -5.1361654E-10
 -1.0514884E-07
  -27.77778       27.77778      1.0928267E-07   1.566097     -5.1357080E-10
 -1.0928146E-07
  -27.77778       38.88889      1.1733928E-07   1.566420     -5.1347882E-10
 -1.1733816E-07
  -27.77778       50.00000      1.2074507E-07   1.566545     -5.1334781E-10
 -1.2074398E-07
  -16.66667      -50.00000      1.1992364E-07   1.566516     -5.1335503E-10
 -1.1992255E-07
  -16.66667      -38.88889      1.1279732E-07   1.566244     -5.1349519E-10
 -1.1279616E-07
  -16.66667      -27.77778      1.0538577E-07   1.565923     -5.1358395E-10
 -1.0538452E-07
  -16.66667      -16.66667      8.2010992E-08   1.564533     -5.1365412E-10
 -8.2009386E-08
  -16.66667      -5.555557      5.1877347E-08   1.560894     -5.1369697E-10
 -5.1874803E-08
  -16.66667       5.555557      5.1233854E-08   1.560770     -5.1370397E-10
 -5.1231279E-08
  -16.66667       16.66666      8.2079588E-08   1.564538     -5.1367244E-10
 -8.2077982E-08
  -16.66667       27.77778      1.0514343E-07   1.565911     -5.1361676E-10
 -1.0514217E-07
  -16.66667       38.88889      1.1262078E-07   1.566236     -5.1353838E-10
 -1.1261961E-07
  -16.66667       50.00000      1.1986268E-07   1.566513     -5.1341120E-10
 -1.1986158E-07
  -5.555557      -50.00000      1.1893678E-07   1.566480     -5.1338234E-10
 -1.1893567E-07
  -5.555557      -38.88889      1.0942448E-07   1.566103     -5.1352106E-10
 -1.0942327E-07
  -5.555557      -27.77778      9.6625371E-08   1.565481     -5.1360832E-10
 -9.6624007E-08
  -5.555557      -16.66667      5.3108447E-08   1.561124     -5.1368371E-10
 -5.3105964E-08
  -5.555557      -5.555557      6.7126486E-08  -1.563143     -5.1373134E-10
  6.7124517E-08
  -5.555557       5.555557      7.5554922E-08  -1.563997     -5.1373772E-10
  7.5553174E-08
  -5.555557       16.66666      5.1177544E-08   1.560758     -5.1370264E-10
 -5.1174965E-08
  -5.555557       27.77778      9.6070721E-08   1.565450     -5.1363996E-10
 -9.6069350E-08
  -5.555557       38.88889      1.0929696E-07   1.566097     -5.1356491E-10
 -1.0929575E-07
  -5.555557       50.00000      1.1884358E-07   1.566476     -5.1343824E-10
 -1.1884247E-07
   5.555557      -50.00000      1.1894582E-07   1.566480     -5.1337695E-10
 -1.1894471E-07
   5.555557      -38.88889      1.0943893E-07   1.566104     -5.1351490E-10
 -1.0943772E-07
   5.555557      -27.77778      9.6723554E-08   1.565486     -5.1360260E-10
 -9.6722189E-08
   5.555557      -16.66667      5.3697981E-08   1.561230     -5.1367832E-10
 -5.3695523E-08
   5.555557      -5.555557      5.8834964E-08  -1.562065     -5.1372490E-10
  5.8832722E-08
   5.555557       5.555557      6.7271905E-08  -1.563160     -5.1373111E-10
  6.7269944E-08
   5.555557       16.66666      5.1766783E-08   1.560873     -5.1369592E-10
 -5.1764236E-08
   5.555557       27.77778      9.6168741E-08   1.565455     -5.1363347E-10
 -9.6167369E-08
   5.555557       38.88889      1.0931109E-07   1.566098     -5.1355786E-10
 -1.0930988E-07
   5.555557       50.00000      1.1885265E-07   1.566476     -5.1343296E-10
 -1.1885154E-07
   16.66666      -50.00000      1.1994146E-07   1.566516     -5.1333593E-10
 -1.1994037E-07
   16.66666      -38.88889      1.1286351E-07   1.566247     -5.1347626E-10
 -1.1286235E-07
   16.66666      -27.77778      1.0551235E-07   1.565929     -5.1356613E-10
 -1.0551110E-07
   16.66666      -16.66667      8.1901796E-08   1.564525     -5.1363558E-10
 -8.1900183E-08
   16.66666      -5.555557      5.3645557E-08   1.561221     -5.1367771E-10
 -5.3643099E-08
   16.66666       5.555557      5.3001767E-08   1.561104     -5.1368371E-10
 -5.2999276E-08
   16.66666       16.66666      8.1969993E-08   1.564530     -5.1365479E-10
 -8.1968381E-08
   16.66666       27.77778      1.0526980E-07   1.565917     -5.1359722E-10
 -1.0526855E-07
   16.66666       38.88889      1.1268686E-07   1.566239     -5.1351973E-10
 -1.1268569E-07
   16.66666       50.00000      1.1988053E-07   1.566514     -5.1339255E-10
 -1.1987943E-07
   27.77778      -50.00000      1.2075675E-07   1.566546     -5.1326066E-10
 -1.2075566E-07
   27.77778      -38.88889      1.1750409E-07   1.566427     -5.1340399E-10
 -1.1750297E-07
   27.77778      -27.77778      1.0944996E-07   1.566105     -5.1350768E-10
 -1.0944875E-07
   27.77778      -16.66667      1.0550637E-07   1.565929     -5.1356580E-10
 -1.0550512E-07
   27.77778      -5.555557      9.6698514E-08   1.565485     -5.1360255E-10
 -9.6697150E-08
   27.77778       5.555557      9.6587520E-08   1.565479     -5.1360849E-10
 -9.6586156E-08
   27.77778       16.66666      1.0536084E-07   1.565922     -5.1358462E-10
 -1.0535959E-07
   27.77778       27.77778      1.0935881E-07   1.566100     -5.1353988E-10
 -1.0935760E-07
   27.77778       38.88889      1.1740265E-07   1.566423     -5.1344828E-10
 -1.1740153E-07
   27.77778       50.00000      1.2074892E-07   1.566545     -5.1331678E-10
 -1.2074783E-07
   38.88889      -50.00000      1.2072812E-07   1.566546     -5.1314902E-10
 -1.2072702E-07
   38.88889      -38.88889      1.2052858E-07   1.566538     -5.1329513E-10
 -1.2052749E-07
   38.88889      -27.77778      1.1750232E-07   1.566427     -5.1340415E-10
 -1.1750120E-07
   38.88889      -16.66667      1.1285726E-07   1.566247     -5.1347648E-10
 -1.1285610E-07
   38.88889      -5.555557      1.0942787E-07   1.566104     -5.1351434E-10
 -1.0942667E-07
   38.88889       5.555557      1.0940985E-07   1.566103     -5.1352084E-10
 -1.0940864E-07
   38.88889       16.66666      1.1278151E-07   1.566243     -5.1349536E-10
 -1.1278034E-07
   38.88889       27.77778      1.1742988E-07   1.566424     -5.1343502E-10
 -1.1742876E-07
   38.88889       38.88889      1.2050306E-07   1.566536     -5.1333898E-10
 -1.2050197E-07
   38.88889       50.00000      1.2067730E-07   1.566544     -5.1320614E-10
 -1.2067621E-07
   50.00000      -50.00000      1.2283917E-07   1.566620     -5.1301080E-10
 -1.2283810E-07
   50.00000      -38.88889      1.2072751E-07   1.566546     -5.1314897E-10
 -1.2072641E-07
   50.00000      -27.77778      1.2075662E-07   1.566546     -5.1326021E-10
 -1.2075553E-07
   50.00000      -16.66667      1.1993899E-07   1.566516     -5.1333587E-10
 -1.1993789E-07
   50.00000      -5.555557      1.1894082E-07   1.566480     -5.1337673E-10
 -1.1893971E-07
   50.00000       5.555557      1.1893043E-07   1.566480     -5.1338228E-10
 -1.1892932E-07
   50.00000       16.66666      1.1991877E-07   1.566515     -5.1335530E-10
 -1.1991767E-07
   50.00000       27.77778      1.2075228E-07   1.566545     -5.1329146E-10
 -1.2075118E-07
   50.00000       38.88889      1.2068794E-07   1.566544     -5.1319321E-10
 -1.2068685E-07
   50.00000       50.00000      1.2280458E-07   1.566618     -5.1306726E-10
 -1.2280351E-07
           1           2          12          11
           2           3          13          12
           3           4          14          13
           4           5          15          14
           5           6          16          15
           6           7          17          16
           7           8          18          17
           8           9          19          18
           9          10          20          19
          11          12          22          21
          12          13          23          22
          13          14          24          23
          14          15          25          24
          15          16          26          25
          16          17          27          26
          17          18          28          27
          18          19          29          28
          19          20          30          29
          21          22          32          31
          22          23          33          32
          23          24          34          33
          24          25          35          34
          25          26          36          35
          26          27          37          36
          27          28          38          37
          28          29          39          38
          29          30          40          39
          31          32          42          41
          32          33          43          42
          33          34          44          43
          34          35          45          44
          35          36          46          45
          36          37          47          46
          37          38          48          47
          38          39          49          48
          39          40          50          49
          41          42          52          51
          42          43          53          52
          43          44          54          53
          44          45          55          54
          45          46          56          55
          46          47          57          56
          47          48          58          57
          48          49          59          58
          49          50          60          59
          51          52          62          61
          52          53          63          62
          53          54          64          63
          54          55          65          64
          55          56          66          65
          56          57          67          66
          57          58          68          67
          58          59          69          68
          59          60          70          69
          61          62          72          71
          62          63          73          72
          63          64          74          73
          64          65          75          74
          65          66          76          75
          66          67          77          76
          67          68          78          77
          68          69          79          78
          69          70          80          79
          71          72          82          81
          72          73          83          82
          73          74          84          83
          74          75          85          84
          75          76          86          85
          76          77          87          86
          77          78          88          87
          78          79          89          88
          79          80          90          89
          81          82          92          91
          82          83          93          92
          83          84          94          93
          84          85          95          94
          85          86          96          95
          86          87          97          96
          87          88          98          97
          88          89          99          98
          89          90         100          99
