 VARIABLES="X" "Y" "abs(eta) (m)" "angle(phi) (rad)" "PRE1" "PRE2"
ZONE N=    100 ,E =      81 ,F=FEPOINT,ET=QUADRILATERAL
  -50.00000      -50.00000      9.5722302E-05  -2.775435      8.9376859E-05
  3.4271510E-05
  -50.00000      -38.88889      9.0239715E-05   2.901842      8.7658613E-05
 -2.1428334E-05
  -50.00000      -27.77778      7.4465483E-05   2.397513      5.4785098E-05
 -5.0435123E-05
  -50.00000      -16.66667      5.1564839E-05   2.029199      2.2818302E-05
 -4.6241301E-05
  -50.00000      -5.555557      1.8569692E-05   1.780768      3.8705252E-06
 -1.8161842E-05
  -50.00000       5.555557      1.8510651E-05  -1.170705     -7.2099479E-06
  1.7048778E-05
  -50.00000       16.66666      5.1479372E-05  -1.043994     -2.5882367E-05
  4.4499760E-05
  -50.00000       27.77778      7.4400501E-05 -0.6965846     -5.7068009E-05
  4.7735492E-05
  -50.00000       38.88889      9.0337897E-05 -0.2008853     -8.8521228E-05
  1.8025741E-05
  -50.00000       50.00000      9.6101088E-05  0.4011123     -8.8473287E-05
 -3.7521957E-05
  -38.88889      -50.00000      1.1602569E-04   2.906154      1.1282480E-04
 -2.7065216E-05
  -38.88889      -38.88889      1.1313018E-04   2.232961      6.9555310E-05
 -8.9221605E-05
  -38.88889      -27.77778      1.0252283E-04   1.663423      9.4827928E-06
 -1.0208334E-04
  -38.88889      -16.66667      7.2338851E-05   1.226048     -2.4447603E-05
 -6.8082481E-05
  -38.88889      -5.555557      2.7273329E-05  0.9523664     -1.5811893E-05
 -2.2222028E-05
  -38.88889       5.555557      2.7596421E-05  -2.057160      1.2898960E-05
  2.4396297E-05
  -38.88889       16.66666      7.2512019E-05  -1.866472      2.1129013E-05
  6.9365393E-05
  -38.88889       27.77778      1.0251698E-04  -1.443956     -1.2968404E-05
  1.0169342E-04
  -38.88889       38.88889      1.1306055E-04 -0.8774871     -7.2255410E-05
  8.6958862E-05
  -38.88889       50.00000      1.1612893E-04 -0.2052349     -1.1369175E-04
  2.3666738E-05
  -27.77778      -50.00000      1.3398170E-04   2.408050      9.9522571E-05
 -8.9701462E-05
  -27.77778      -38.88889      1.4352052E-04   1.668329      1.3975779E-05
 -1.4283843E-04
  -27.77778      -27.77778      1.3672914E-04   1.005636     -7.3225434E-05
 -1.1546815E-04
  -27.77778      -16.66667      1.0779962E-04  0.4654013     -9.6334217E-05
 -4.8378472E-05
  -27.77778      -5.555557      4.3476695E-05  0.1211433     -4.3158059E-05
 -5.2540368E-06
  -27.77778       5.555557      4.4444158E-05  -2.925786      4.3413227E-05
  9.5170863E-06
  -27.77778       16.66666      1.0851539E-04  -2.640380      9.5168041E-05
  5.2140527E-05
  -27.77778       27.77778      1.3705128E-04  -2.109727      7.0337243E-05
  1.1762536E-04
  -27.77778       38.88889      1.4351527E-04  -1.448892     -1.7451839E-05
  1.4245023E-04
  -27.77778       50.00000      1.3392685E-04 -0.7072234     -1.0180703E-04
  8.7015702E-05
  -16.66667      -50.00000      1.5452415E-04   2.051951      7.1514318E-05
 -1.3697962E-04
  -16.66667      -38.88889      1.6886916E-04   1.240142     -5.4825341E-05
 -1.5972155E-04
  -16.66667      -27.77778      1.7988210E-04  0.4727192     -1.6015506E-04
 -8.1901933E-05
  -16.66667      -16.66667      1.7439482E-04 -0.2040030     -1.7077848E-04
  3.5330806E-05
  -16.66667      -5.555557      9.2100308E-05 -0.7233230     -6.9039350E-05
  6.0959286E-05
  -16.66667       5.555557      9.3669914E-05   2.476280      7.3692347E-05
 -5.7822926E-05
  -16.66667       16.66666      1.7576848E-04   2.963110      1.7297627E-04
 -3.1205280E-05
  -16.66667       27.77778      1.8061427E-04  -2.647681      1.5902816E-04
  8.5624531E-05
  -16.66667       38.88889      1.6903941E-04  -1.880624      5.1539140E-05
  1.6099081E-04
  -16.66667       50.00000      1.5446673E-04  -1.066934     -7.4578289E-05
  1.3527028E-04
  -5.555557      -50.00000      1.6614543E-04   1.865063      4.8188565E-05
 -1.5900367E-04
  -5.555557      -38.88889      1.9148365E-04   1.009438     -1.0193374E-04
 -1.6209719E-04
  -5.555557      -27.77778      2.1906814E-04  0.1598128     -2.1627657E-04
 -3.4861056E-05
  -5.555557      -16.66667      2.7762525E-04 -0.7032494     -2.1175723E-04
  1.7954012E-04
  -5.555557      -5.555557      4.7227438E-04  -1.389017     -8.5377687E-05
  4.6449300E-04
  -5.555557       5.555557      4.7655011E-04   1.767552      9.3160081E-05
 -4.6735554E-04
  -5.555557       16.66666      2.7952332E-04   2.456501      2.1645188E-04
 -1.7686679E-04
  -5.555557       27.77778      2.2009760E-04  -2.963578      2.1661946E-04
  3.8973889E-05
  -5.555557       38.88889      1.9179689E-04  -2.113625      9.9074568E-05
  1.6422629E-04
  -5.555557       50.00000      1.6609400E-04  -1.255487     -5.1507533E-05
  1.5790564E-04
   5.555557      -50.00000      1.6614675E-04   1.865027      4.8183156E-05
 -1.5900670E-04
   5.555557      -38.88889      1.9148787E-04   1.009436     -1.0193625E-04
 -1.6210059E-04
   5.555557      -27.77778      2.1907514E-04  0.1599446     -2.1627889E-04
 -3.4890676E-05
   5.555557      -16.66667      2.7751320E-04 -0.7028275     -2.1174747E-04
  1.7937833E-04
   5.555557      -5.555557      4.7122617E-04  -1.388634     -8.5365871E-05
  4.6342937E-04
   5.555557       5.555557      4.7726920E-04   1.767302      9.3183728E-05
 -4.6808406E-04
   5.555557       16.66666      2.7967882E-04   2.455933      2.1647182E-04
 -1.7708811E-04
   5.555557       27.77778      2.2011036E-04  -2.963766      2.1663932E-04
  3.8935530E-05
   5.555557       38.88889      1.9179513E-04  -2.113679      9.9082645E-05
  1.6421937E-04
   5.555557       50.00000      1.6609482E-04  -1.255503     -5.1505242E-05
  1.5790724E-04
   16.66666      -50.00000      1.5453374E-04   2.051863      7.1506656E-05
 -1.3699444E-04
   16.66666      -38.88889      1.6888029E-04   1.240106     -5.4834807E-05
 -1.5973007E-04
   16.66666      -27.77778      1.7990917E-04  0.4729499     -1.6016026E-04
 -8.1951213E-05
   16.66666      -16.66667      1.7433759E-04 -0.2031101     -1.7075390E-04
  3.5166762E-05
   16.66666      -5.555557      9.1710441E-05 -0.7191520     -6.8999689E-05
  6.0413971E-05
   16.66666       5.555557      9.4083509E-05   2.471546      7.3741969E-05
 -5.8427973E-05
   16.66666       16.66666      1.7585313E-04   2.961895      1.7302150E-04
 -3.1430605E-05
   16.66666       27.77778      1.8062636E-04  -2.648075      1.5907257E-04
  8.5567524E-05
   16.66666       38.88889      1.6903605E-04  -1.880748      5.1558050E-05
  1.6098122E-04
   16.66666       50.00000      1.5447737E-04  -1.066960     -7.4579897E-05
  1.3528155E-04
   27.77778      -50.00000      1.3397922E-04   2.407881      9.9505596E-05
 -8.9716596E-05
   27.77778      -38.88889      1.4352587E-04   1.668197      1.3957467E-05
 -1.4284560E-04
   27.77778      -27.77778      1.3674943E-04   1.005684     -7.3230789E-05
 -1.1548877E-04
   27.77778      -16.66667      1.0782979E-04  0.4661372     -9.6325544E-05
 -4.8462909E-05
   27.77778      -5.555557      4.3461419E-05  0.1248199     -4.3123295E-05
 -5.4107750E-06
   27.77778       5.555557      4.4461740E-05  -2.929742      4.3467728E-05
  9.3489634E-06
   27.77778       16.66666      1.0851779E-04  -2.641384      9.5222458E-05
  5.2046089E-05
   27.77778       27.77778      1.3703936E-04  -2.110061      7.0370428E-05
  1.1759161E-04
   27.77778       38.88889      1.4351482E-04  -1.448988     -1.7438046E-05
  1.4245145E-04
   27.77778       50.00000      1.3393795E-04 -0.7072598     -1.0181229E-04
  8.7026616E-05
   38.88889      -50.00000      1.1601178E-04   2.905936      1.1280536E-04
 -2.7086637E-05
   38.88889      -38.88889      1.1312604E-04   2.232711      6.9530448E-05
 -8.9235735E-05
   38.88889      -27.77778      1.0252967E-04   1.663234      9.4641146E-06
 -1.0209194E-04
   38.88889      -16.66667      7.2360541E-05   1.226109     -2.4450788E-05
 -6.8104382E-05
   38.88889      -5.555557      2.7295344E-05  0.9536087     -1.5797015E-05
 -2.2259608E-05
   38.88889       5.555557      2.7573558E-05  -2.058653      1.2924648E-05
  2.4356817E-05
   38.88889       16.66666      7.2497736E-05  -1.866880      2.1153122E-05
  6.9343114E-05
   38.88889       27.77778      1.0251520E-04  -1.444074     -1.2956238E-05
  1.0169318E-04
   38.88889       38.88889      1.1307126E-04 -0.8775205     -7.2259347E-05
  8.6969514E-05
   38.88889       50.00000      1.1614562E-04 -0.2052665     -1.1370733E-04
  2.3673732E-05
   50.00000      -50.00000      9.5701129E-05  -2.775673      8.9365240E-05
  3.4242665E-05
   50.00000      -38.88889      9.0221365E-05   2.901514      8.7633744E-05
 -2.1452766E-05
   50.00000      -27.77778      7.4457283E-05   2.397107      5.4758613E-05
 -5.0451770E-05
   50.00000      -16.66667      5.1573777E-05   2.028743      2.2801127E-05
 -4.6259735E-05
   50.00000      -5.555557      1.8572615E-05   1.780012      3.8573985E-06
 -1.8167622E-05
   50.00000       5.555557      1.8511544E-05  -1.170316     -7.2169269E-06
  1.7046796E-05
   50.00000       16.66666      5.1492189E-05  -1.043897     -2.5893125E-05
  4.4508331E-05
   50.00000       27.77778      7.4417243E-05 -0.6965517     -5.7082427E-05
  4.7744350E-05
   50.00000       38.88889      9.0359179E-05 -0.2008857     -8.8542074E-05
  1.8030025E-05
   50.00000       50.00000      9.6125776E-05  0.4010549     -8.8498164E-05
 -3.7526512E-05
           1           2          12          11
           2           3          13          12
           3           4          14          13
           4           5          15          14
           5           6          16          15
           6           7          17          16
           7           8          18          17
           8           9          19          18
           9          10          20          19
          11          12          22          21
          12          13          23          22
          13          14          24          23
          14          15          25          24
          15          16          26          25
          16          17          27          26
          17          18          28          27
          18          19          29          28
          19          20          30          29
          21          22          32          31
          22          23          33          32
          23          24          34          33
          24          25          35          34
          25          26          36          35
          26          27          37          36
          27          28          38          37
          28          29          39          38
          29          30          40          39
          31          32          42          41
          32          33          43          42
          33          34          44          43
          34          35          45          44
          35          36          46          45
          36          37          47          46
          37          38          48          47
          38          39          49          48
          39          40          50          49
          41          42          52          51
          42          43          53          52
          43          44          54          53
          44          45          55          54
          45          46          56          55
          46          47          57          56
          47          48          58          57
          48          49          59          58
          49          50          60          59
          51          52          62          61
          52          53          63          62
          53          54          64          63
          54          55          65          64
          55          56          66          65
          56          57          67          66
          57          58          68          67
          58          59          69          68
          59          60          70          69
          61          62          72          71
          62          63          73          72
          63          64          74          73
          64          65          75          74
          65          66          76          75
          66          67          77          76
          67          68          78          77
          68          69          79          78
          69          70          80          79
          71          72          82          81
          72          73          83          82
          73          74          84          83
          74          75          85          84
          75          76          86          85
          76          77          87          86
          77          78          88          87
          78          79          89          88
          79          80          90          89
          81          82          92          91
          82          83          93          92
          83          84          94          93
          84          85          95          94
          85          86          96          95
          86          87          97          96
          87          88          98          97
          88          89          99          98
          89          90         100          99
