 VARIABLES="X" "Y" "abs(eta) (m)" "angle(phi) (rad)" "PRE1" "PRE2"
ZONE N=    100 ,E =      81 ,F=FEPOINT,ET=QUADRILATERAL
  -50.00000      -50.00000      9.5890152E-07   1.640313      6.6605722E-08
 -9.5658550E-07
  -50.00000      -38.88889      9.8923567E-07   1.659992      8.8118163E-08
 -9.8530325E-07
  -50.00000      -27.77778      1.0179762E-06   1.659505      9.0185175E-08
 -1.0139735E-06
  -50.00000      -16.66667      1.0372070E-06   1.648199      8.0202639E-08
 -1.0341015E-06
  -50.00000      -5.555557      1.0469174E-06   1.637269      6.9539965E-08
 -1.0446054E-06
  -50.00000       5.555557      1.0500490E-06   1.635319      6.7704931E-08
 -1.0478640E-06
  -50.00000       16.66666      1.0463631E-06   1.643982      7.6510382E-08
 -1.0435621E-06
  -50.00000       27.77778      1.0326147E-06   1.656828      8.8728498E-08
 -1.0287956E-06
  -50.00000       38.88889      1.0067826E-06   1.663414      9.3112099E-08
 -1.0024676E-06
  -50.00000       50.00000      9.7441421E-07   1.653054      8.0062591E-08
 -9.7111945E-07
  -38.88889      -50.00000      9.8420742E-07   1.658990      8.6688232E-08
 -9.8038231E-07
  -38.88889      -38.88889      1.0205219E-06   1.657532      8.8405208E-08
 -1.0166856E-06
  -38.88889      -27.77778      1.0418111E-06   1.632919      6.4678957E-08
 -1.0398014E-06
  -38.88889      -16.66667      1.0425736E-06   1.599504      2.9925548E-08
 -1.0421439E-06
  -38.88889      -5.555557      1.0350467E-06   1.573425      2.7203135E-09
 -1.0350432E-06
  -38.88889       5.555557      1.0370571E-06   1.568682     -2.1925375E-09
 -1.0370549E-06
  -38.88889       16.66666      1.0498347E-06   1.588012      1.8072800E-08
 -1.0496792E-06
  -38.88889       27.77778      1.0564704E-06   1.620495      5.2483507E-08
 -1.0551660E-06
  -38.88889       38.88889      1.0421697E-06   1.650778      8.3265611E-08
 -1.0388381E-06
  -38.88889       50.00000      1.0067668E-06   1.663412      9.3108859E-08
 -1.0024520E-06
  -27.77778      -50.00000      1.0062311E-06   1.661710      9.1354558E-08
 -1.0020755E-06
  -27.77778      -38.88889      1.0359682E-06   1.638001      6.9569907E-08
 -1.0336296E-06
  -27.77778      -27.77778      1.0291243E-06   1.587786      1.7483565E-08
 -1.0289758E-06
  -27.77778      -16.66667      9.7700126E-07   1.526365     -4.3395072E-08
 -9.7603709E-07
  -27.77778      -5.555557      9.1428200E-07   1.474889     -8.7551996E-08
 -9.1008036E-07
  -27.77778       5.555557      9.1272040E-07   1.465713     -9.5735643E-08
 -9.0768566E-07
  -27.77778       16.66666      9.7734028E-07   1.505095     -6.4166024E-08
 -9.7523161E-07
  -27.77778       27.77778      1.0390560E-06   1.563981     -7.0814838E-09
 -1.0390319E-06
  -27.77778       38.88889      1.0564445E-06   1.620508      5.2495601E-08
 -1.0551394E-06
  -27.77778       50.00000      1.0325747E-06   1.656835      8.8731724E-08
 -1.0287552E-06
  -16.66667      -50.00000      1.0188859E-06   1.656886      8.7606807E-08
 -1.0151125E-06
  -16.66667      -38.88889      1.0330497E-06   1.615115      4.5768878E-08
 -1.0320352E-06
  -16.66667      -27.77778      9.7696818E-07   1.540583     -2.9513288E-08
 -9.7652230E-07
  -16.66667      -16.66667      8.0516975E-07   1.431786     -1.1156690E-07
 -7.9740278E-07
  -16.66667      -5.555557      5.3998343E-07   1.252053     -1.6921634E-07
 -5.1278448E-07
  -16.66667       5.555557      5.2859377E-07   1.223027     -1.8014555E-07
 -4.9694967E-07
  -16.66667       16.66666      7.9132587E-07   1.392686     -1.4019956E-07
 -7.7880725E-07
  -16.66667       27.77778      9.7728662E-07   1.505126     -6.4132401E-08
 -9.7518011E-07
  -16.66667       38.88889      1.0497725E-06   1.588050      1.8111205E-08
 -1.0496163E-06
  -16.66667       50.00000      1.0462941E-06   1.644005      7.6529176E-08
 -1.0434916E-06
  -5.555557      -50.00000      1.0219210E-06   1.653341      8.4258573E-08
 -1.0184415E-06
  -5.555557      -38.88889      1.0233841E-06   1.602335      3.2270822E-08
 -1.0228752E-06
  -5.555557      -27.77778      9.2114243E-07   1.511338     -5.4736901E-08
 -9.1951466E-07
  -5.555557      -16.66667      5.6368754E-07   1.306403     -1.4730514E-07
 -5.4410003E-07
  -5.555557      -5.555557      5.6000908E-07  -1.183379     -2.1157078E-07
  5.1850554E-07
  -5.555557       5.555557      6.7324453E-07  -1.231389     -2.2414217E-07
  6.3483736E-07
  -5.555557       16.66666      5.2823583E-07   1.222887     -1.8009317E-07
 -4.9658792E-07
  -5.555557       27.77778      9.1256464E-07   1.465782     -9.5656553E-08
 -9.0753736E-07
  -5.555557       38.88889      1.0369541E-06   1.568751     -2.1210289E-09
 -1.0369520E-06
  -5.555557       50.00000      1.0499515E-06   1.635360      6.7741226E-08
 -1.0477639E-06
   5.555557      -50.00000      1.0188033E-06   1.655411      8.6102716E-08
 -1.0151584E-06
   5.555557      -38.88889      1.0215086E-06   1.607229      3.7208061E-08
 -1.0208307E-06
   5.555557      -27.77778      9.2301178E-07   1.520382     -4.6513630E-08
 -9.2183905E-07
   5.555557      -16.66667      5.7596003E-07   1.331840     -1.3632325E-07
 -5.5959441E-07
   5.555557      -5.555557      4.4947646E-07  -1.112300     -1.9893825E-07
  4.0305417E-07
   5.555557       5.555557      5.6088601E-07  -1.184133     -2.1151013E-07
  5.1947723E-07
   5.555557       16.66666      5.3927761E-07   1.251826     -1.6911146E-07
 -5.1207581E-07
   5.555557       27.77778      9.1405167E-07   1.474995     -8.7433598E-08
 -9.0986032E-07
   5.555557       38.88889      1.0349106E-06   1.573517      2.8155083E-09
 -1.0349067E-06
   5.555557       50.00000      1.0467959E-06   1.637319      6.9584836E-08
 -1.0444805E-06
   16.66666      -50.00000      1.0097211E-06   1.661359      9.1318036E-08
 -1.0055833E-06
   16.66666      -38.88889      1.0260304E-06   1.627043      5.7680179E-08
 -1.0244079E-06
   16.66666      -27.77778      9.7721397E-07   1.561953     -8.6412433E-09
 -9.7717577E-07
   16.66666      -16.66667      8.1981619E-07   1.469630     -8.2796191E-08
 -8.1562456E-07
   16.66666      -5.555557      5.7562420E-07   1.331791     -1.3627113E-07
 -5.5926148E-07
   16.66666       5.555557      5.6300399E-07   1.306267     -1.4720035E-07
 -5.4342024E-07
   16.66666       16.66666      8.0477355E-07   1.431889     -1.1142981E-07
 -7.9702187E-07
   16.66666       27.77778      9.7679003E-07   1.526492     -4.3261810E-08
 -9.7583154E-07
   16.66666       38.88889      1.0424203E-06   1.599600      3.0020910E-08
 -1.0419880E-06
   16.66666       50.00000      1.0370710E-06   1.648244      8.0238856E-08
 -1.0339622E-06
   27.77778      -50.00000      9.9150714E-07   1.664549      9.2820407E-08
 -9.8715282E-07
   27.77778      -38.88889      1.0214173E-06   1.650993      8.1826094E-08
 -1.0181345E-06
   27.77778      -27.77778      1.0196256E-06   1.612165      4.2168566E-08
 -1.0187533E-06
   27.77778      -16.66667      9.7716406E-07   1.561987     -8.6083629E-09
 -9.7712609E-07
   27.77778      -5.555557      9.2286780E-07   1.520458     -4.6435702E-08
 -9.2169881E-07
   27.77778       5.555557      9.2092444E-07   1.511452     -5.4619868E-08
 -9.1930326E-07
   27.77778       16.66666      9.7676104E-07   1.540712     -2.9380988E-08
 -9.7631903E-07
   27.77778       27.77778      1.0289568E-06   1.587903      1.7601476E-08
 -1.0288063E-06
   27.77778       38.88889      1.0416558E-06   1.632997      6.4749514E-08
 -1.0396413E-06
   27.77778       50.00000      1.0178363E-06   1.659527      9.0195243E-08
 -1.0138322E-06
   38.88889      -50.00000      9.6656402E-07   1.655394      8.1671871E-08
 -9.6310737E-07
   38.88889      -38.88889      9.9877252E-07   1.664621      9.3571970E-08
 -9.9437966E-07
   38.88889      -27.77778      1.0213921E-06   1.651006      8.1837570E-08
 -1.0181083E-06
   38.88889      -16.66667      1.0259708E-06   1.627082      5.7717337E-08
 -1.0243460E-06
   38.88889      -5.555557      1.0214106E-06   1.607301      3.7277673E-08
 -1.0207301E-06
   38.88889       5.555557      1.0232528E-06   1.602431      3.2364429E-08
 -1.0227409E-06
   38.88889       16.66666      1.0328990E-06   1.615213      4.5862858E-08
 -1.0318803E-06
   38.88889       27.77778      1.0358141E-06   1.638079      6.9639555E-08
 -1.0334704E-06
   38.88889       38.88889      1.0203714E-06   1.657570      8.8429779E-08
 -1.0165323E-06
   38.88889       50.00000      9.8910766E-07   1.659975      8.8090836E-08
 -9.8517717E-07
   50.00000      -50.00000      9.4344858E-07   1.627093      5.3085298E-08
 -9.4195394E-07
   50.00000      -38.88889      9.6654799E-07   1.655392      8.1668325E-08
 -9.6309157E-07
   50.00000      -27.77778      9.9146632E-07   1.664555      9.2822710E-08
 -9.8711166E-07
   50.00000      -16.66667      1.0096536E-06   1.661382      9.1335131E-08
 -1.0055139E-06
   50.00000      -5.555557      1.0187071E-06   1.655453      8.6137170E-08
 -1.0150588E-06
   50.00000       5.555557      1.0218007E-06   1.653393      8.4301661E-08
 -1.0183172E-06
   50.00000       16.66666      1.0187501E-06   1.656931      8.7641453E-08
 -1.0149733E-06
   50.00000       27.77778      1.0060915E-06   1.661732      9.1363987E-08
 -1.0019345E-06
   50.00000       38.88889      9.8408043E-07   1.658973      8.6660492E-08
 -9.8025725E-07
   50.00000       50.00000      9.5880409E-07   1.640252      6.6541020E-08
 -9.5649239E-07
           1           2          12          11
           2           3          13          12
           3           4          14          13
           4           5          15          14
           5           6          16          15
           6           7          17          16
           7           8          18          17
           8           9          19          18
           9          10          20          19
          11          12          22          21
          12          13          23          22
          13          14          24          23
          14          15          25          24
          15          16          26          25
          16          17          27          26
          17          18          28          27
          18          19          29          28
          19          20          30          29
          21          22          32          31
          22          23          33          32
          23          24          34          33
          24          25          35          34
          25          26          36          35
          26          27          37          36
          27          28          38          37
          28          29          39          38
          29          30          40          39
          31          32          42          41
          32          33          43          42
          33          34          44          43
          34          35          45          44
          35          36          46          45
          36          37          47          46
          37          38          48          47
          38          39          49          48
          39          40          50          49
          41          42          52          51
          42          43          53          52
          43          44          54          53
          44          45          55          54
          45          46          56          55
          46          47          57          56
          47          48          58          57
          48          49          59          58
          49          50          60          59
          51          52          62          61
          52          53          63          62
          53          54          64          63
          54          55          65          64
          55          56          66          65
          56          57          67          66
          57          58          68          67
          58          59          69          68
          59          60          70          69
          61          62          72          71
          62          63          73          72
          63          64          74          73
          64          65          75          74
          65          66          76          75
          66          67          77          76
          67          68          78          77
          68          69          79          78
          69          70          80          79
          71          72          82          81
          72          73          83          82
          73          74          84          83
          74          75          85          84
          75          76          86          85
          76          77          87          86
          77          78          88          87
          78          79          89          88
          79          80          90          89
          81          82          92          91
          82          83          93          92
          83          84          94          93
          84          85          95          94
          85          86          96          95
          86          87          97          96
          87          88          98          97
          88          89          99          98
          89          90         100          99
