 VARIABLES="X" "Y" "abs(eta) (m)" "angle(phi) (rad)" "PRE1" "PRE2"
ZONE N=    100 ,E =      81 ,F=FEPOINT,ET=QUADRILATERAL
  -50.00000      -50.00000      4.6777113E-06  -1.856638      1.3189515E-06
  4.4879116E-06
  -50.00000      -38.88889      5.4896959E-06  -2.199123      3.2268006E-06
  4.4412295E-06
  -50.00000      -27.77778      6.4035335E-06  -2.481302      5.0576000E-06
  3.9275847E-06
  -50.00000      -16.66667      7.3685401E-06  -2.682437      6.6053585E-06
  3.2656735E-06
  -50.00000      -5.555557      7.6987635E-06  -2.798482      7.2500238E-06
  2.5900022E-06
  -50.00000       5.555557      7.6988335E-06  -2.798554      7.2502758E-06
  2.5895065E-06
  -50.00000       16.66666      7.3687315E-06  -2.682593      6.6060393E-06
  3.2647283E-06
  -50.00000       27.77778      6.4036890E-06  -2.481512      5.0585472E-06
  3.9266183E-06
  -50.00000       38.88889      5.4898464E-06  -2.199321      3.2277644E-06
  4.4407152E-06
  -50.00000       50.00000      4.6779164E-06  -1.856779      1.3196424E-06
  4.4879221E-06
  -38.88889      -50.00000      4.2684469E-06  -2.200377      2.5132883E-06
  3.4500756E-06
  -38.88889      -38.88889      5.2084988E-06  -2.587425      4.4289868E-06
  2.7409008E-06
  -38.88889      -27.77778      6.3747357E-06  -2.920055      6.2189411E-06
  1.4007230E-06
  -38.88889      -16.66667      7.6337656E-06   3.111462      7.6303004E-06
 -2.2997328E-07
  -38.88889      -5.555557      8.7114140E-06   2.989331      8.6106274E-06
 -1.3212956E-06
  -38.88889       5.555557      8.7119233E-06   2.989204      8.6109640E-06
 -1.3224626E-06
  -38.88889       16.66666      7.6347897E-06   3.111087      7.6312372E-06
 -2.3286572E-07
  -38.88889       27.77778      6.3754460E-06  -2.920515      6.2202785E-06
  1.3980153E-06
  -38.88889       38.88889      5.2087667E-06  -2.587852      4.4303861E-06
  2.7391477E-06
  -38.88889       50.00000      4.2685765E-06  -2.200682      2.5144157E-06
  3.4494144E-06
  -27.77778      -50.00000      3.5546259E-06  -2.484462      2.8143691E-06
  2.1713340E-06
  -27.77778      -38.88889      4.5512388E-06  -2.921721      4.4416697E-06
  9.9264605E-07
  -27.77778      -27.77778      6.2191903E-06   2.988186      6.1461533E-06
 -9.5033016E-07
  -27.77778      -16.66667      8.2036104E-06   2.676493      7.3321980E-06
 -3.6794145E-06
  -27.77778      -5.555557      1.0116377E-05   2.448160      7.7800632E-06
 -6.4661958E-06
  -27.77778       5.555557      1.0119580E-05   2.447847      7.7805034E-06
 -6.4706778E-06
  -27.77778       16.66666      8.2075958E-06   2.675815      7.3332617E-06
 -3.6861768E-06
  -27.77778       27.77778      6.2215668E-06   2.987358      6.1477135E-06
 -9.5577877E-07
  -27.77778       38.88889      4.5521210E-06  -2.922594      4.4433959E-06
  9.8895850E-07
  -27.77778       50.00000      3.5547982E-06  -2.485064      2.8158111E-06
  2.1697463E-06
  -16.66667      -50.00000      2.4514386E-06  -2.689572      2.2052318E-06
  1.0707495E-06
  -16.66667      -38.88889      3.2666742E-06   3.106713      3.2646874E-06
 -1.1391747E-07
  -16.66667      -27.77778      4.9166183E-06   2.674235      4.3893701E-06
 -2.2150773E-06
  -16.66667      -16.66667      8.2646184E-06   2.235919      5.1005563E-06
 -6.5029412E-06
  -16.66667      -5.555557      1.3400874E-05   1.997976      5.5520600E-06
 -1.2196641E-05
  -16.66667       5.555557      1.3420419E-05   1.997349      5.5524979E-06
 -1.2217914E-05
  -16.66667       16.66666      8.2839888E-06   2.234261      5.1016932E-06
 -6.5266531E-06
  -16.66667       27.77778      4.9230653E-06   2.672448      4.3911546E-06
 -2.2258328E-06
  -16.66667       38.88889      3.2687865E-06   3.104834      3.2665785E-06
 -1.2012805E-07
  -16.66667       50.00000      2.4518790E-06  -2.690735      2.2068718E-06
  1.0683762E-06
  -5.555557      -50.00000      8.4927069E-07  -2.826574      8.0747867E-07
  2.6313290E-07
  -5.555557      -38.88889      1.2363495E-06   2.969598      1.2181075E-06
 -2.1159862E-07
  -5.555557      -27.77778      2.0095922E-06   2.437337      1.5314978E-06
 -1.3011438E-06
  -5.555557      -16.66667      4.4336089E-06   1.994135      1.8213543E-06
 -4.0422215E-06
  -5.555557      -5.555557      2.6447815E-05   1.644991      1.9604770E-06
 -2.6375053E-05
  -5.555557       5.555557      2.6530390E-05   1.644777      1.9609577E-06
 -2.6457819E-05
  -5.555557       16.66666      4.4878580E-06   1.988993      1.8225768E-06
 -4.1011076E-06
  -5.555557       27.77778      2.0246273E-06   2.430013      1.5333137E-06
 -1.3221442E-06
  -5.555557       38.88889      1.2394977E-06   2.964372      1.2200841E-06
 -2.1851601E-07
  -5.555557       50.00000      8.4986863E-07  -2.830760      8.0914242E-07
  2.5993313E-07
   5.555557      -50.00000      8.6398785E-07  0.3780096     -8.0299122E-07
 -3.1887313E-07
   5.555557      -38.88889      1.2557115E-06 -0.1256971     -1.2458046E-06
  1.5742403E-07
   5.555557      -27.77778      2.0414477E-06 -0.6760544     -1.5924264E-06
  1.2773750E-06
   5.555557      -16.66667      4.5175793E-06  -1.134518     -1.9089889E-06
  4.0944210E-06
   5.555557      -5.555557      2.6627253E-05  -1.493251     -2.0627590E-06
  2.6547234E-05
   5.555557       5.555557      2.6524465E-05  -1.492968     -2.0622788E-06
  2.6444173E-05
   5.555557       16.66666      4.4682433E-06  -1.129652     -1.9078248E-06
  4.0404707E-06
   5.555557       27.77778      2.0275122E-06 -0.6687825     -1.5907398E-06
  1.2571209E-06
   5.555557       38.88889      1.2530505E-06 -0.1206133     -1.2439472E-06
  1.5076833E-07
   5.555557       50.00000      8.6372091E-07  0.3819685     -8.0147487E-07
 -3.2195013E-07
   16.66666      -50.00000      2.4659628E-06  0.4736476     -2.1944859E-06
 -1.1248128E-06
   16.66666      -38.88889      3.2836133E-06 -1.7596388E-02 -3.2831049E-06
  5.7776752E-08
   16.66666      -27.77778      4.9412820E-06 -0.4552146     -4.4380949E-06
  2.1724600E-06
   16.66666      -16.66667      8.3049090E-06 -0.8982188     -5.1739935E-06
  6.4962528E-06
   16.66666      -5.555557      1.3456698E-05  -1.138401     -5.6389840E-06
  1.2218207E-05
   16.66666       5.555557      1.3441717E-05  -1.137915     -5.6386421E-06
  1.2201864E-05
   16.66666       16.66666      8.2882862E-06 -0.8967729     -5.1730062E-06
  6.4757769E-06
   16.66666       27.77778      4.9358673E-06 -0.4536543     -4.4366120E-06
  2.1631595E-06
   16.66666       38.88889      3.2820449E-06 -1.5949160E-02 -3.2816274E-06
  5.2343641E-08
   16.66666       50.00000      2.4657581E-06  0.4745879     -2.1932453E-06
 -1.1267822E-06
   27.77778      -50.00000      3.5680287E-06  0.6715293     -2.7933065E-06
 -2.2199702E-06
   27.77778      -38.88889      4.5662696E-06  0.2319762     -4.4439576E-06
 -1.0497910E-06
   27.77778      -27.77778      6.2380377E-06 -0.1439442     -6.1735232E-06
  8.9483200E-07
   27.77778      -16.66667      8.2264096E-06 -0.4574946     -7.3804213E-06
  3.6336198E-06
   27.77778      -5.555557      1.0138031E-05 -0.6867564     -7.8398070E-06
  6.4278383E-06
   27.77778       5.555557      1.0135464E-05 -0.6864847     -7.8395678E-06
  6.4240812E-06
   27.77778       16.66666      8.2233109E-06 -0.4569640     -7.3795677E-06
  3.6283354E-06
   27.77778       27.77778      6.2362615E-06 -0.1432978     -6.1723426E-06
  8.9058716E-07
   27.77778       38.88889      4.5659635E-06  0.2326623     -4.4429380E-06
 -1.0527693E-06
   27.77778       50.00000      3.5681180E-06  0.6719177     -2.7925139E-06
 -2.2211107E-06
   38.88889      -50.00000      4.2806669E-06  0.9525672     -2.4810442E-06
 -3.4883417E-06
   38.88889      -38.88889      5.2221276E-06  0.5642121     -4.4127510E-06
 -2.7925341E-06
   38.88889      -27.77778      6.3897673E-06  0.2302943     -6.2210729E-06
 -1.4585542E-06
   38.88889      -16.66667      7.6500728E-06 -2.2384392E-02 -7.6481565E-06
  1.7122794E-07
   38.88889      -5.555557      8.7289081E-06 -0.1451575     -8.6371074E-06
  1.2626214E-06
   38.88889       5.555557      8.7286153E-06 -0.1450655     -8.6369337E-06
  1.2617842E-06
   38.88889       16.66666      7.6495235E-06 -2.2108657E-02 -7.6476545E-06
  1.6910693E-07
   38.88889       27.77778      6.3896123E-06  0.2306203     -6.2204458E-06
 -1.4605470E-06
   38.88889       38.88889      5.2223095E-06  0.5644692     -4.4121866E-06
 -2.7937651E-06
   38.88889       50.00000      4.2808038E-06  0.9526812     -2.4807262E-06
 -3.4887360E-06
   50.00000      -50.00000      4.6884829E-06   1.294614     -1.2784790E-06
 -4.5108054E-06
   50.00000      -38.88889      5.5019773E-06  0.9513028     -3.1945738E-06
 -4.4795593E-06
   50.00000      -27.77778      6.4171054E-06  0.6683353     -5.0364929E-06
 -3.9765537E-06
   50.00000      -16.66667      7.3830838E-06  0.4664944     -6.5942045E-06
 -3.3206013E-06
   50.00000      -5.555557      7.7134764E-06  0.3503840     -7.2448133E-06
 -2.6477164E-06
   50.00000       5.555557      7.7134810E-06  0.3504218     -7.2447174E-06
 -2.6479918E-06
   50.00000       16.66666      7.3830834E-06  0.4665715     -6.5939485E-06
 -3.3211090E-06
   50.00000       27.77778      6.4171977E-06  0.6684322     -5.0361800E-06
 -3.9770989E-06
   50.00000       38.88889      5.5021446E-06  0.9513480     -3.1944685E-06
 -4.4798398E-06
   50.00000       50.00000      4.6884884E-06   1.294597     -1.2785578E-06
 -4.5107886E-06
           1           2          12          11
           2           3          13          12
           3           4          14          13
           4           5          15          14
           5           6          16          15
           6           7          17          16
           7           8          18          17
           8           9          19          18
           9          10          20          19
          11          12          22          21
          12          13          23          22
          13          14          24          23
          14          15          25          24
          15          16          26          25
          16          17          27          26
          17          18          28          27
          18          19          29          28
          19          20          30          29
          21          22          32          31
          22          23          33          32
          23          24          34          33
          24          25          35          34
          25          26          36          35
          26          27          37          36
          27          28          38          37
          28          29          39          38
          29          30          40          39
          31          32          42          41
          32          33          43          42
          33          34          44          43
          34          35          45          44
          35          36          46          45
          36          37          47          46
          37          38          48          47
          38          39          49          48
          39          40          50          49
          41          42          52          51
          42          43          53          52
          43          44          54          53
          44          45          55          54
          45          46          56          55
          46          47          57          56
          47          48          58          57
          48          49          59          58
          49          50          60          59
          51          52          62          61
          52          53          63          62
          53          54          64          63
          54          55          65          64
          55          56          66          65
          56          57          67          66
          57          58          68          67
          58          59          69          68
          59          60          70          69
          61          62          72          71
          62          63          73          72
          63          64          74          73
          64          65          75          74
          65          66          76          75
          66          67          77          76
          67          68          78          77
          68          69          79          78
          69          70          80          79
          71          72          82          81
          72          73          83          82
          73          74          84          83
          74          75          85          84
          75          76          86          85
          76          77          87          86
          77          78          88          87
          78          79          89          88
          79          80          90          89
          81          82          92          91
          82          83          93          92
          83          84          94          93
          84          85          95          94
          85          86          96          95
          86          87          97          96
          87          88          98          97
          88          89          99          98
          89          90         100          99
