 VARIABLES="X" "Y" "abs(eta) (m)" "angle(phi) (rad)" "PRE1" "PRE2"
ZONE N=    100 ,E =      81 ,F=FEPOINT,ET=QUADRILATERAL
  -50.00000      -50.00000      1.1989898E-05  0.3806983     -1.1131486E-05
 -4.4550725E-06
  -50.00000      -38.88889      1.4511834E-05 -0.2229525     -1.4152650E-05
  3.2087116E-06
  -50.00000      -27.77778      1.6748478E-05 -0.7228203     -1.2560406E-05
  1.1079158E-05
  -50.00000      -16.66667      1.9323103E-05  -1.080447     -9.0999056E-06
  1.7046232E-05
  -50.00000      -5.555557      2.0773350E-05  -1.268050     -6.1934220E-06
  1.9828605E-05
  -50.00000       5.555557      2.0773328E-05  -1.268067     -6.1930737E-06
  1.9828691E-05
  -50.00000       16.66666      1.9324245E-05  -1.080472     -9.1000120E-06
  1.7047470E-05
  -50.00000       27.77778      1.6749535E-05 -0.7228470     -1.2560901E-05
  1.1080193E-05
  -50.00000       38.88889      1.4513661E-05 -0.2229778     -1.4154351E-05
  3.2094731E-06
  -50.00000       50.00000      1.1992647E-05  0.3806576     -1.1134220E-05
 -4.4556409E-06
  -38.88889      -50.00000      1.1285832E-05 -0.2236812     -1.1004673E-05
  2.5034299E-06
  -38.88889      -38.88889      1.4138885E-05 -0.8959994     -8.8331090E-06
  1.1040120E-05
  -38.88889      -27.77778      1.7945877E-05  -1.463492     -1.9219706E-06
  1.7842660E-05
  -38.88889      -16.66667      2.1129352E-05  -1.893025      6.6912767E-06
  2.0041864E-05
  -38.88889      -5.555557      2.3967150E-05  -2.124555      1.2604030E-05
  2.0385354E-05
  -38.88889       5.555557      2.3966839E-05  -2.124613      1.2605057E-05
  2.0384354E-05
  -38.88889       16.66666      2.1128526E-05  -1.893148      6.6934685E-06
  2.0040261E-05
  -38.88889       27.77778      1.7945264E-05  -1.463589     -1.9201807E-06
  1.7842236E-05
  -38.88889       38.88889      1.4139666E-05 -0.8960243     -8.8333218E-06
  1.1040950E-05
  -38.88889       50.00000      1.1288120E-05 -0.2236772     -1.1006915E-05
  2.5038933E-06
  -27.77778      -50.00000      9.3019153E-06 -0.7247068     -6.9642870E-06
  6.1663877E-06
  -27.77778      -38.88889      1.2816069E-05  -1.464480     -1.3599862E-06
  1.2743707E-05
  -27.77778      -27.77778      1.7117023E-05  -2.125294      9.0123958E-06
  1.4552292E-05
  -27.77778      -16.66667      2.2539703E-05  -2.659676      1.9972611E-05
  1.0446674E-05
  -27.77778      -5.555557      2.7451522E-05  -2.973489      2.7064563E-05
  4.5929874E-06
  -27.77778       5.555557      2.7452917E-05  -2.973676      2.7066797E-05
  4.5881593E-06
  -27.77778       16.66666      2.2540531E-05  -2.660088      1.9977648E-05
  1.0438827E-05
  -27.77778       27.77778      1.7114859E-05  -2.125643      9.0163376E-06
  1.4547303E-05
  -27.77778       38.88889      1.2815130E-05  -1.464601     -1.3583524E-06
  1.2742937E-05
  -27.77778       50.00000      9.3033805E-06 -0.7246488     -6.9657408E-06
  6.1669557E-06
  -16.66667      -50.00000      6.4364235E-06  -1.084749     -3.0066760E-06
  5.6909971E-06
  -16.66667      -38.88889      9.0503863E-06  -1.895980      2.8914446E-06
  8.5760739E-06
  -16.66667      -27.77778      1.3519472E-05  -2.661097      1.1988609E-05
  6.2489516E-06
  -16.66667      -16.66667      2.1867778E-05   2.949625      2.1466081E-05
 -4.1721764E-06
  -16.66667      -5.555557      3.4762430E-05   2.447378      2.6716889E-05
 -2.2240380E-05
  -16.66667       5.555557      3.4782275E-05   2.446784      2.6718913E-05
 -2.2268956E-05
  -16.66667       16.66666      2.1878224E-05   2.948355      2.1471020E-05
 -4.2014249E-06
  -16.66667       27.77778      1.3519546E-05  -2.662143      1.1995200E-05
  6.2364484E-06
  -16.66667       38.88889      9.0476842E-06  -1.896413      2.8942952E-06
  8.5722604E-06
  -16.66667       50.00000      6.4371143E-06  -1.084636     -3.0076419E-06
  5.6912681E-06
  -5.555557      -50.00000      2.3013461E-06  -1.284574     -6.4974000E-07
  2.2077209E-06
  -5.555557      -38.88889      3.4156092E-06  -2.136687      1.8313390E-06
  2.8831550E-06
  -5.555557      -27.77778      5.4795605E-06  -2.980541      5.4086499E-06
  8.7868506E-07
  -5.555557      -16.66667      1.1554484E-05   2.445283      8.8647676E-06
 -7.4109366E-06
  -5.555557      -5.555557      5.9089187E-05   1.759204      1.1067128E-05
 -5.8043523E-05
  -5.555557       5.555557      5.9186357E-05   1.758927      1.1069208E-05
 -5.8142046E-05
  -5.555557       16.66666      1.1608787E-05   2.440398      8.8699526E-06
 -7.4891832E-06
  -5.555557       27.77778      5.4819202E-06  -2.984734      5.4146185E-06
  8.5636287E-07
  -5.555557       38.88889      3.4120917E-06  -2.138375      1.8343125E-06
  2.8770937E-06
  -5.555557       50.00000      2.3005289E-06  -1.284134     -6.5048067E-07
  2.2066508E-06
   5.555557      -50.00000      2.3176303E-06   1.893914      7.3590309E-07
 -2.1976937E-06
   5.555557      -38.88889      3.4362404E-06   1.033317     -1.7592591E-06
 -2.9517375E-06
   5.555557      -27.77778      5.5072692E-06  0.1794218     -5.4188613E-06
 -9.8283090E-07
   5.555557      -16.66667      1.1637682E-05 -0.6885884     -8.9859641E-06
  7.3951401E-06
   5.555557      -5.555557      5.9273938E-05  -1.379600     -1.1264018E-05
  5.8193829E-05
   5.555557       5.555557      5.9141232E-05  -1.379188     -1.1262713E-05
  5.8058908E-05
   5.555557       16.66666      1.1589403E-05 -0.6840867     -8.9817468E-06
  7.3241031E-06
   5.555557       27.77778      5.5078681E-06  0.1833305     -5.4155671E-06
 -1.0041132E-06
   5.555557       38.88889      3.4403190E-06   1.034531     -1.7577597E-06
 -2.9573764E-06
   5.555557       50.00000      2.3186706E-06   1.893098      7.3443960E-07
 -2.1992798E-06
   16.66666      -50.00000      6.4513820E-06   2.069566      3.0859917E-06
 -5.6654198E-06
   16.66666      -38.88889      9.0701014E-06   1.255970     -2.8085688E-06
 -8.6243072E-06
   16.66666      -27.77778      1.3544600E-05  0.4880480     -1.1963266E-05
 -6.3510988E-06
   16.66666      -16.66667      2.1907867E-05 -0.1872101     -2.1525077E-05
  4.0774585E-06
   16.66666      -5.555557      3.4819212E-05 -0.6907968     -2.6836511E-05
  2.2185113E-05
   16.66666       5.555557      3.4804751E-05 -0.6903436     -2.6835412E-05
  2.2163740E-05
   16.66666       16.66666      2.1901322E-05 -0.1862545     -2.1522532E-05
  4.0556747E-06
   16.66666       27.77778      1.3549769E-05  0.4888262     -1.1962884E-05
 -6.3628349E-06
   16.66666       38.88889      9.0737840E-06   1.256033     -2.8091620E-06
 -8.6279870E-06
   16.66666       50.00000      6.4528726E-06   2.069113      3.0841363E-06
 -5.6681274E-06
   27.77778      -50.00000      9.3145036E-06   2.425129      7.0243709E-06
 -6.1170404E-06
   27.77778      -38.88889      1.2834325E-05   1.683858      1.4479829E-06
 -1.2752383E-05
   27.77778      -27.77778      1.7139266E-05   1.021926     -8.9419600E-06
 -1.4621758E-05
   27.77778      -16.66667      2.2568680E-05  0.4865808     -1.9949288E-05
 -1.0553256E-05
   27.77778      -5.555557      2.7484819E-05  0.1722907     -2.7077896E-05
 -4.7119856E-06
   27.77778       5.555557      2.7485898E-05  0.1724246     -2.7078328E-05
 -4.7157969E-06
   27.77778       16.66666      2.2572764E-05  0.4868265     -1.9950303E-05
 -1.0560068E-05
   27.77778       27.77778      1.7142625E-05   1.021995     -8.9427103E-06
 -1.4625237E-05
   27.77778       38.88889      1.2835878E-05   1.683660      1.4456274E-06
 -1.2754212E-05
   27.77778       50.00000      9.3139524E-06   2.424721      7.0214583E-06
 -6.1195447E-06
   38.88889      -50.00000      1.1294856E-05   2.924191      1.1028988E-05
 -2.4362282E-06
   38.88889      -38.88889      1.4153152E-05   2.251059      8.9022888E-06
 -1.1002770E-05
   38.88889      -27.77778      1.7964658E-05   1.682824      2.0083289E-06
 -1.7852046E-05
   38.88889      -16.66667      2.1151882E-05   1.252914     -6.6111402E-06
 -2.0092160E-05
   38.88889      -5.555557      2.3992274E-05   1.021078     -1.2534703E-05
 -2.0457526E-05
   38.88889       5.555557      2.3993029E-05   1.021078     -1.2535083E-05
 -2.0458179E-05
   38.88889       16.66666      2.1153764E-05   1.252884     -6.6123371E-06
 -2.0093748E-05
   38.88889       27.77778      1.7965896E-05   1.682695      2.0061652E-06
 -1.7853536E-05
   38.88889       38.88889      1.4153093E-05   2.250802      8.8994229E-06
 -1.1005012E-05
   38.88889       50.00000      1.1292901E-05   2.923860      1.1026272E-05
 -2.4394567E-06
   50.00000      -50.00000      1.1994874E-05  -2.755323      1.1111103E-05
  4.5188913E-06
   50.00000      -38.88889      1.4520478E-05   2.923428      1.4176290E-05
 -3.1427808E-06
   50.00000      -27.77778      1.6761182E-05   2.423165      1.2618510E-05
 -1.1032243E-05
   50.00000      -16.66667      1.9341729E-05   2.065165      9.1771826E-06
 -1.7025915E-05
   50.00000      -5.555557      2.0791498E-05   1.877373      6.2748027E-06
 -1.9822039E-05
   50.00000       5.555557      2.0791711E-05   1.877344      6.2742934E-06
 -1.9822424E-05
   50.00000       16.66666      1.9343130E-05   2.065076      9.1763322E-06
 -1.7027965E-05
   50.00000       27.77778      1.6761129E-05   2.422997      1.2616619E-05
 -1.1034328E-05
   50.00000       38.88889      1.4518962E-05   2.923197      1.4174084E-05
 -3.1457314E-06
   50.00000       50.00000      1.1992501E-05  -2.755559      1.1109970E-05
  4.5153793E-06
           1           2          12          11
           2           3          13          12
           3           4          14          13
           4           5          15          14
           5           6          16          15
           6           7          17          16
           7           8          18          17
           8           9          19          18
           9          10          20          19
          11          12          22          21
          12          13          23          22
          13          14          24          23
          14          15          25          24
          15          16          26          25
          16          17          27          26
          17          18          28          27
          18          19          29          28
          19          20          30          29
          21          22          32          31
          22          23          33          32
          23          24          34          33
          24          25          35          34
          25          26          36          35
          26          27          37          36
          27          28          38          37
          28          29          39          38
          29          30          40          39
          31          32          42          41
          32          33          43          42
          33          34          44          43
          34          35          45          44
          35          36          46          45
          36          37          47          46
          37          38          48          47
          38          39          49          48
          39          40          50          49
          41          42          52          51
          42          43          53          52
          43          44          54          53
          44          45          55          54
          45          46          56          55
          46          47          57          56
          47          48          58          57
          48          49          59          58
          49          50          60          59
          51          52          62          61
          52          53          63          62
          53          54          64          63
          54          55          65          64
          55          56          66          65
          56          57          67          66
          57          58          68          67
          58          59          69          68
          59          60          70          69
          61          62          72          71
          62          63          73          72
          63          64          74          73
          64          65          75          74
          65          66          76          75
          66          67          77          76
          67          68          78          77
          68          69          79          78
          69          70          80          79
          71          72          82          81
          72          73          83          82
          73          74          84          83
          74          75          85          84
          75          76          86          85
          76          77          87          86
          77          78          88          87
          78          79          89          88
          79          80          90          89
          81          82          92          91
          82          83          93          92
          83          84          94          93
          84          85          95          94
          85          86          96          95
          86          87          97          96
          87          88          98          97
          88          89          99          98
          89          90         100          99
