 VARIABLES="X" "Y" "abs(eta) (m)" "angle(phi) (rad)" "PRE1" "PRE2"
ZONE N=    100 ,E =      81 ,F=FEPOINT,ET=QUADRILATERAL
  -50.00000      -50.00000      1.8500497E-04  0.3443570     -1.7414383E-04
 -6.2456107E-05
  -50.00000      -38.88889      2.0262964E-04 -0.1378568     -2.0070725E-04
  2.7845481E-05
  -50.00000      -27.77778      2.3359607E-04 -0.4952406     -2.0553054E-04
  1.1101498E-04
  -50.00000      -16.66667      2.6328157E-04 -0.7220215     -1.9758526E-04
  1.7400361E-04
  -50.00000      -5.555557      2.8125374E-04 -0.8332525     -1.8913529E-04
  2.0816224E-04
  -50.00000       5.555557      2.8125604E-04 -0.8332654     -1.8913414E-04
  2.0816636E-04
  -50.00000       16.66666      2.6328780E-04 -0.7220612     -1.9758302E-04
  1.7401556E-04
  -50.00000       27.77778      2.3360377E-04 -0.4953074     -2.0552990E-04
  1.1103236E-04
  -50.00000       38.88889      2.0263634E-04 -0.1379561     -2.0071112E-04
  2.7866336E-05
  -50.00000       50.00000      1.8500688E-04  0.3442330     -1.7415338E-04
 -6.2435160E-05
  -38.88889      -50.00000      2.0226034E-04 -0.1384699     -2.0032437E-04
  2.7917560E-05
  -38.88889      -38.88889      2.4664792E-04 -0.6099896     -2.0216595E-04
  1.4129445E-04
  -38.88889      -27.77778      3.0047706E-04 -0.9445488     -1.7611217E-04
  2.4345629E-04
  -38.88889      -16.66667      3.4862015E-04  -1.165466     -1.3746879E-04
  3.2037220E-04
  -38.88889      -5.555557      3.7722269E-04  -1.281164     -1.0773469E-04
  3.6151099E-04
  -38.88889       5.555557      3.7722697E-04  -1.281178     -1.0773077E-04
  3.6151664E-04
  -38.88889       16.66666      3.4863071E-04  -1.165505     -1.3746035E-04
  3.2038731E-04
  -38.88889       27.77778      3.0048995E-04 -0.9446127     -1.7610415E-04
  2.4347800E-04
  -38.88889       38.88889      2.4666009E-04 -0.6100823     -2.0216283E-04
  1.4132018E-04
  -38.88889       50.00000      2.0226892E-04 -0.1385977     -2.0032930E-04
  2.7944339E-05
  -27.77778      -50.00000      2.3281129E-04 -0.4969343     -2.0465234E-04
  1.1098879E-04
  -27.77778      -38.88889      3.0000455E-04 -0.9456140     -1.7557619E-04
  2.4326061E-04
  -27.77778      -27.77778      3.7660013E-04  -1.282373     -1.0712069E-04
  3.6104408E-04
  -27.77778      -16.66667      4.4989566E-04  -1.527247     -1.9586496E-05
  4.4946911E-04
  -27.77778      -5.555557      4.9980107E-04  -1.680482      5.4711210E-05
  4.9679755E-04
  -27.77778       5.555557      4.9981015E-04  -1.680501      5.4721422E-05
  4.9680553E-04
  -27.77778       16.66666      4.4991408E-04  -1.527293     -1.9566376E-05
  4.4948841E-04
  -27.77778       27.77778      3.7662027E-04  -1.282441     -1.0710159E-04
  3.6107074E-04
  -27.77778       38.88889      3.0002289E-04 -0.9457040     -1.7556504E-04
  2.4329130E-04
  -27.77778       50.00000      2.3282491E-04 -0.4970550     -2.0465092E-04
  1.1102000E-04
  -16.66667      -50.00000      2.6199711E-04 -0.7250597     -1.9609430E-04
  1.7375126E-04
  -16.66667      -38.88889      3.4751830E-04  -1.167847     -1.3627356E-04
  3.1968497E-04
  -16.66667      -27.77778      4.4906951E-04  -1.528686     -1.8904919E-05
  4.4867140E-04
  -16.66667      -16.66667      5.6440482E-04  -1.831768      1.4562736E-04
  5.4529391E-04
  -16.66667      -5.555557      6.9329201E-04  -2.098400      3.4904768E-04
  5.9901545E-04
  -16.66667       5.555557      6.9332216E-04  -2.098432      3.4908188E-04
  5.9903046E-04
  -16.66667       16.66666      5.6444335E-04  -1.831828      1.4567016E-04
  5.4532237E-04
  -16.66667       27.77778      4.4909984E-04  -1.528763     -1.8871491E-05
  4.4870315E-04
  -16.66667       38.88889      3.4754246E-04  -1.167938     -1.3625385E-04
  3.1971963E-04
  -16.66667       50.00000      2.6201599E-04 -0.7251767     -1.9608811E-04
  1.7378674E-04
  -5.555557      -50.00000      2.7946878E-04 -0.8374022     -1.8707500E-04
  2.0761923E-04
  -5.555557      -38.88889      3.7536910E-04  -1.284843     -1.0588114E-04
  3.6012658E-04
  -5.555557      -27.77778      4.9759314E-04  -1.683813      5.6116602E-05
  4.9441872E-04
  -5.555557      -16.66667      6.9042505E-04  -2.102118      3.4982021E-04
  5.9524161E-04
  -5.555557      -5.555557      1.1919541E-03  -2.551016      9.9006062E-04
  6.6372781E-04
  -5.555557       5.555557      1.1922023E-03  -2.551105      9.9032559E-04
  6.6377834E-04
  -5.555557       16.66666      6.9052092E-04  -2.102210      3.4992304E-04
  5.9529237E-04
  -5.555557       27.77778      4.9763644E-04  -1.683906      5.6167486E-05
  4.9445650E-04
  -5.555557       38.88889      3.7539713E-04  -1.284940     -1.0585425E-04
  3.6016369E-04
  -5.555557       50.00000      2.7948961E-04 -0.8375180     -1.8706491E-04
  2.0765635E-04
   5.555557      -50.00000      2.7902567E-04 -0.8384610     -1.8655880E-04
  2.0748770E-04
   5.555557      -38.88889      3.7475638E-04  -1.286091     -1.0525947E-04
  3.5967038E-04
   5.555557      -27.77778      4.9649982E-04  -1.685509      5.6829813E-05
  4.9323670E-04
   5.555557      -16.66667      6.8760029E-04  -2.105892      3.5062362E-04
  5.9148733E-04
   5.555557      -5.555557      1.1736370E-03  -2.576426      9.9113584E-04
  6.2854879E-04
   5.555557       5.555557      1.1738737E-03  -2.576529      9.9140045E-04
  6.2857347E-04
   5.555557       16.66666      6.8769930E-04  -2.105981      3.5072648E-04
  5.9154141E-04
   5.555557       27.77778      4.9654342E-04  -1.685602      5.6880719E-05
  4.9327471E-04
   5.555557       38.88889      3.7478423E-04  -1.286188     -1.0523248E-04
  3.5970731E-04
   5.555557       50.00000      2.7904651E-04 -0.8385770     -1.8654866E-04
  2.0752482E-04
   16.66666      -50.00000      2.6072137E-04 -0.7281674     -1.9460119E-04
  1.7351084E-04
   16.66666      -38.88889      3.4587903E-04  -1.171486     -1.3447193E-04
  3.1866849E-04
   16.66666      -27.77778      4.4661420E-04  -1.533084     -1.6839011E-05
  4.4629665E-04
   16.66666      -16.66667      5.6033046E-04  -1.837924      1.4790602E-04
  5.4045726E-04
   16.66666      -5.555557      6.8482070E-04  -2.109720      3.5145821E-04
  5.8775546E-04
   16.66666       5.555557      6.8485463E-04  -2.109749      3.5149278E-04
  5.8777438E-04
   16.66666       16.66666      5.6036725E-04  -1.837985      1.4794878E-04
  5.4048368E-04
   16.66666       27.77778      4.4664418E-04  -1.533161     -1.6805585E-05
  4.4632790E-04
   16.66666       38.88889      3.4590336E-04  -1.171577     -1.3445226E-04
  3.1870318E-04
   16.66666       50.00000      2.6073991E-04 -0.7282856     -1.9459453E-04
  1.7354616E-04
   27.77778      -50.00000      2.3085985E-04 -0.5012873     -2.0245594E-04
  1.1094083E-04
   27.77778      -38.88889      2.9766088E-04 -0.9510586     -1.7288791E-04
  2.4230513E-04
   27.77778      -27.77778      3.7353614E-04  -1.288615     -1.0401160E-04
  3.5876292E-04
   27.77778      -16.66667      4.4580337E-04  -1.534576     -1.6143562E-05
  4.4551096E-04
   27.77778      -5.555557      4.9433426E-04  -1.688962      5.8277350E-05
  4.9088709E-04
   27.77778       5.555557      4.9434270E-04  -1.688980      5.8287529E-05
  4.9089437E-04
   27.77778       16.66666      4.4582144E-04  -1.534623     -1.6123309E-05
  4.4552979E-04
   27.77778       27.77778      3.7355625E-04  -1.288684     -1.0399261E-04
  3.5878937E-04
   27.77778       38.88889      2.9767890E-04 -0.9511493     -1.7287637E-04
  2.4233549E-04
   27.77778       50.00000      2.3087340E-04 -0.5014087     -2.0245434E-04
  1.1097191E-04
   38.88889      -50.00000      1.9968416E-04 -0.1429299     -1.9764795E-04
  2.8443761E-05
   38.88889      -38.88889      2.4382338E-04 -0.6165096     -1.9893587E-04
  1.4097645E-04
   38.88889      -27.77778      2.9719571E-04 -0.9521720     -1.7234826E-04
  2.4211852E-04
   38.88889      -16.66667      3.4479552E-04  -1.173958     -1.3326510E-04
  3.1800059E-04
   38.88889      -5.555557      3.7293314E-04  -1.289904     -1.0338211E-04
  3.5831728E-04
   38.88889       5.555557      3.7293709E-04  -1.289918     -1.0337814E-04
  3.5832252E-04
   38.88889       16.66666      3.4480600E-04  -1.173997     -1.3325656E-04
  3.1801552E-04
   38.88889       27.77778      2.9720861E-04 -0.9522364     -1.7234014E-04
  2.4214012E-04
   38.88889       38.88889      2.4383538E-04 -0.6166030     -1.9893251E-04
  1.4100196E-04
   38.88889       50.00000      1.9969257E-04 -0.1430591     -1.9765261E-04
  2.8470493E-05
   50.00000      -50.00000      1.8203244E-04  0.3428035     -1.7144108E-04
 -6.1186343E-05
   50.00000      -38.88889      1.9931716E-04 -0.1435916     -1.9726588E-04
  2.8522018E-05
   50.00000      -27.77778      2.3008330E-04 -0.5030769     -2.0157672E-04
  1.1092857E-04
   50.00000      -16.66667      2.5945404E-04 -0.7313450     -1.9310562E-04
  1.7328189E-04
   50.00000      -5.555557      2.7726524E-04 -0.8427827     -1.8448899E-04
  2.0697783E-04
   50.00000       5.555557      2.7726748E-04 -0.8427954     -1.8448787E-04
  2.0698184E-04
   50.00000       16.66666      2.5946018E-04 -0.7313843     -1.9310339E-04
  1.7329361E-04
   50.00000       27.77778      2.3009098E-04 -0.5031437     -2.0157605E-04
  1.1094574E-04
   50.00000       38.88889      1.9932393E-04 -0.1436919     -1.9726971E-04
  2.8542776E-05
   50.00000       50.00000      1.8203430E-04  0.3426782     -1.7145049E-04
 -6.1165490E-05
           1           2          12          11
           2           3          13          12
           3           4          14          13
           4           5          15          14
           5           6          16          15
           6           7          17          16
           7           8          18          17
           8           9          19          18
           9          10          20          19
          11          12          22          21
          12          13          23          22
          13          14          24          23
          14          15          25          24
          15          16          26          25
          16          17          27          26
          17          18          28          27
          18          19          29          28
          19          20          30          29
          21          22          32          31
          22          23          33          32
          23          24          34          33
          24          25          35          34
          25          26          36          35
          26          27          37          36
          27          28          38          37
          28          29          39          38
          29          30          40          39
          31          32          42          41
          32          33          43          42
          33          34          44          43
          34          35          45          44
          35          36          46          45
          36          37          47          46
          37          38          48          47
          38          39          49          48
          39          40          50          49
          41          42          52          51
          42          43          53          52
          43          44          54          53
          44          45          55          54
          45          46          56          55
          46          47          57          56
          47          48          58          57
          48          49          59          58
          49          50          60          59
          51          52          62          61
          52          53          63          62
          53          54          64          63
          54          55          65          64
          55          56          66          65
          56          57          67          66
          57          58          68          67
          58          59          69          68
          59          60          70          69
          61          62          72          71
          62          63          73          72
          63          64          74          73
          64          65          75          74
          65          66          76          75
          66          67          77          76
          67          68          78          77
          68          69          79          78
          69          70          80          79
          71          72          82          81
          72          73          83          82
          73          74          84          83
          74          75          85          84
          75          76          86          85
          76          77          87          86
          77          78          88          87
          78          79          89          88
          79          80          90          89
          81          82          92          91
          82          83          93          92
          83          84          94          93
          84          85          95          94
          85          86          96          95
          86          87          97          96
          87          88          98          97
          88          89          99          98
          89          90         100          99
