 VARIABLES="X" "Y" "abs(eta) (m)" "angle(phi) (rad)" "PRE1" "PRE2"
ZONE N=    100 ,E =      81 ,F=FEPOINT,ET=QUADRILATERAL
  -50.00000      -50.00000      4.8414051E-07   2.267993      3.1085256E-07
 -3.7116402E-07
  -50.00000      -38.88889      4.5740094E-07   2.144712      2.4833406E-07
 -3.8411693E-07
  -50.00000      -27.77778      3.3350395E-07   2.165914      1.8696441E-07
 -2.7616878E-07
  -50.00000      -16.66667      2.5717213E-07   2.028365      1.1361045E-07
 -2.3071665E-07
  -50.00000      -5.555557      1.0373094E-07   1.957191      3.9091152E-08
 -9.6083241E-08
  -50.00000       5.555557      8.3914969E-08  -1.128005     -3.5954471E-08
  7.5822150E-08
  -50.00000       16.66666      2.3852769E-07  -1.088888     -1.1055077E-07
  2.1136222E-07
  -50.00000       27.77778      3.1725031E-07 -0.9519820     -1.8402731E-07
  2.5842158E-07
  -50.00000       38.88889      4.4029591E-07 -0.9791773     -2.4555550E-07
  3.6546268E-07
  -50.00000       50.00000      4.6875141E-07 -0.8531122     -3.0827053E-07
  3.5312488E-07
  -38.88889      -50.00000      5.8552166E-07   2.146755      3.1889780E-07
 -4.9105989E-07
  -38.88889      -38.88889      5.2057504E-07   2.098298      2.6204503E-07
 -4.4981192E-07
  -38.88889      -27.77778      5.4519916E-07   1.926928      1.9008434E-07
 -5.1098931E-07
  -38.88889      -16.66667      4.3768614E-07   1.839469      1.1618480E-07
 -4.2198371E-07
  -38.88889      -5.555557      1.7803052E-07   1.798247      4.0144947E-08
 -1.7344523E-07
  -38.88889       5.555557      1.5428800E-07  -1.329497     -3.6869334E-08
  1.4981802E-07
  -38.88889       16.66666      4.1526312E-07  -1.295349     -1.1294205E-07
  3.9960923E-07
  -38.88889       27.77778      5.2496029E-07  -1.206688     -1.8694688E-07
  4.9054478E-07
  -38.88889       38.88889      5.0332591E-07  -1.030081     -2.5908679E-07
  4.3152170E-07
  -38.88889       50.00000      5.6867322E-07 -0.9813343     -3.1613337E-07
  4.7270385E-07
  -27.77778      -50.00000      5.9371570E-07   2.171006      3.3533965E-07
 -4.8994451E-07
  -27.77778      -38.88889      7.5885418E-07   1.928233      2.6550367E-07
 -7.1089204E-07
  -27.77778      -27.77778      8.4175508E-07   1.803568      1.9417183E-07
 -8.1905370E-07
  -27.77778      -16.66667      6.8093391E-07   1.748574      1.2041838E-07
 -6.7020176E-07
  -27.77778      -5.555557      3.8044118E-07   1.680063      4.1487020E-08
 -3.7817233E-07
  -27.77778       5.555557      3.4980673E-07  -1.461827     -3.8042682E-08
  3.4773194E-07
  -27.77778       16.66666      6.5700459E-07  -1.391748     -1.1700819E-07
  6.4650146E-07
  -27.77778       27.77778      8.1984297E-07  -1.335800     -1.9089185E-07
  7.9730972E-07
  -27.77778       38.88889      7.3941868E-07  -1.208013     -2.6240303E-07
  6.9129203E-07
  -27.77778       50.00000      5.7761997E-07 -0.9574934     -3.3246164E-07
  4.7234954E-07
  -16.66667      -50.00000      7.5231662E-07   2.036350      3.3772844E-07
 -6.7224983E-07
  -16.66667      -38.88889      1.0049176E-06   1.841675      2.6889433E-07
 -9.6827443E-07
  -16.66667      -27.77778      1.1255427E-06   1.749009      1.9952594E-07
 -1.1077165E-06
  -16.66667      -16.66667      4.9264031E-07   1.822745      1.2281087E-07
 -4.7708693E-07
  -16.66667      -5.555557      1.4623797E-06   1.599715      4.2283919E-08
 -1.4617683E-06
  -16.66667       5.555557      1.4133346E-06  -1.543364     -3.8766672E-08
  1.4128029E-06
  -16.66667       16.66666      4.7023815E-07  -1.314169     -1.1935578E-07
  4.5483856E-07
  -16.66667       27.77778      1.1044574E-06  -1.392223     -1.9617991E-07
  1.0868945E-06
  -16.66667       38.88889      9.8533110E-07  -1.297759     -2.6570200E-07
  9.4883075E-07
  -16.66667       50.00000      7.3480066E-07  -1.097731     -3.3478750E-07
  6.5410194E-07
  -5.555557      -50.00000      8.5286592E-07   1.979813      3.3919116E-07
 -7.8251497E-07
  -5.555557      -38.88889      1.1722850E-06   1.804218      2.7115809E-07
 -1.1404935E-06
  -5.555557      -27.77778      1.8354181E-06   1.680277      2.0054171E-07
 -1.8244293E-06
  -5.555557      -16.66667      4.3259724E-06   1.599309      1.2332936E-07
 -4.3242139E-06
  -5.555557      -5.555557      1.4959127E-05   1.573652      4.2718575E-08
 -1.4959066E-05
  -5.555557       5.555557      1.4920570E-05  -1.568172     -3.9148986E-08
  1.4920519E-05
  -5.555557       16.66666      4.3025852E-06  -1.542936     -1.1985567E-07
  4.3009154E-06
  -5.555557       27.77778      1.8163097E-06  -1.462024     -1.9717483E-07
  1.8055755E-06
  -5.555557       38.88889      1.1540180E-06  -1.336493     -2.6792273E-07
  1.1224861E-06
  -5.555557       50.00000      8.3530949E-07  -1.156582     -3.3618790E-07
  7.6466961E-07
   5.555557      -50.00000      8.5260655E-07   1.979925      3.3917553E-07
 -7.8223900E-07
   5.555557      -38.88889      1.1714188E-06   1.804376      2.7113893E-07
 -1.1396078E-06
   5.555557      -27.77778      1.8327571E-06   1.680439      2.0054698E-07
 -1.8217518E-06
   5.555557      -16.66667      4.3147297E-06   1.599378      1.2330425E-07
 -4.3129676E-06
   5.555557      -5.555557      1.4931356E-05   1.573655      4.2677662E-08
 -1.4931295E-05
   5.555557       5.555557      1.4981125E-05  -1.568181     -3.9183909E-08
  1.4981074E-05
   5.555557       16.66666      4.3151804E-06  -1.543015     -1.1986508E-07
  4.3135151E-06
   5.555557       27.77778      1.8191528E-06  -1.462189     -1.9718540E-07
  1.8084344E-06
   5.555557       38.88889      1.1549292E-06  -1.336643     -2.6796624E-07
  1.1234125E-06
   5.555557       50.00000      8.3561184E-07  -1.156659     -3.3625074E-07
  7.6497230E-07
   16.66666      -50.00000      7.5182169E-07   2.036644      3.3770317E-07
 -6.7170856E-07
   16.66666      -38.88889      1.0029112E-06   1.842178      2.6884311E-07
 -9.6620613E-07
   16.66666      -27.77778      1.1217825E-06   1.749576      1.9948507E-07
 -1.1039029E-06
   16.66666      -16.66667      4.8586998E-07   1.826226      1.2276026E-07
 -4.7010587E-07
   16.66666      -5.555557      1.4273265E-06   1.600392      4.2237076E-08
 -1.4267015E-06
   16.66666       5.555557      1.4498274E-06  -1.544019     -3.8818332E-08
  1.4493077E-06
   16.66666       16.66666      4.7862829E-07  -1.318671     -1.1939976E-07
  4.6349621E-07
   16.66666       27.77778      1.1085853E-06  -1.392843     -1.9623737E-07
  1.0910784E-06
   16.66666       38.88889      9.8743533E-07  -1.298284     -2.6577004E-07
  9.5099671E-07
   16.66666       50.00000      7.3535313E-07  -1.098056     -3.3482669E-07
  6.5470243E-07
   27.77778      -50.00000      5.9363555E-07   2.170971      3.3527760E-07
 -4.8988989E-07
   27.77778      -38.88889      7.5696886E-07   1.929085      2.6544791E-07
 -7.0890002E-07
   27.77778      -27.77778      8.3737257E-07   1.804709      1.9409070E-07
 -8.1456835E-07
   27.77778      -16.66667      6.7454795E-07   1.750188      1.2036014E-07
 -6.6372309E-07
   27.77778      -5.555557      3.6674274E-07   1.683943      4.1407109E-08
 -3.6439769E-07
   27.77778       5.555557      3.6371580E-07  -1.465678     -3.8162970E-08
  3.6170812E-07
   27.77778       16.66666      6.6378408E-07  -1.393453     -1.1710142E-07
  6.5337321E-07
   27.77778       27.77778      8.2437913E-07  -1.337009     -1.9097867E-07
  8.0195269E-07
   27.77778       38.88889      7.4139655E-07  -1.208920     -2.6247665E-07
  6.9337932E-07
   27.77778       50.00000      5.7777254E-07 -0.9575408     -3.3252704E-07
  4.7249009E-07
   38.88889      -50.00000      5.8462683E-07   2.147521      3.1878616E-07
 -4.9006519E-07
   38.88889      -38.88889      5.1996244E-07   2.098747      2.6193837E-07
 -4.4916501E-07
   38.88889      -27.77778      5.4257941E-07   1.928587      1.9001456E-07
 -5.0821933E-07
   38.88889      -16.66667      4.3291496E-07   1.842219      1.1606531E-07
 -4.1706619E-07
   38.88889      -5.555557      1.7182735E-07   1.806055      4.0051994E-08
 -1.6709421E-07
   38.88889       5.555557      1.6051142E-07  -1.338430     -3.6962742E-08
  1.5619754E-07
   38.88889       16.66666      4.2009918E-07  -1.298399     -1.1302386E-07
  4.0460961E-07
   38.88889       27.77778      5.2772458E-07  -1.208404     -1.8708478E-07
  4.9344959E-07
   38.88889       38.88889      5.0402110E-07  -1.030710     -2.5917288E-07
  4.3228079E-07
   38.88889       50.00000      5.6959954E-07 -0.9822150     -3.1623117E-07
  4.7375252E-07
   50.00000      -50.00000      4.8349369E-07   2.268747      3.1071653E-07
 -3.7043404E-07
   50.00000      -38.88889      4.5627445E-07   2.146041      2.4823146E-07
 -3.8284136E-07
   50.00000      -27.77778      3.3331975E-07   2.165885      1.8685304E-07
 -2.7602172E-07
   50.00000      -16.66667      2.5564205E-07   2.030746      1.1348022E-07
 -2.2907444E-07
   50.00000      -5.555557      1.0129637E-07   1.965494      3.8951367E-08
 -9.3508000E-08
   50.00000       5.555557      8.6332449E-08  -1.139705     -3.6075065E-08
  7.8433928E-08
   50.00000       16.66666      2.4014753E-07  -1.091648     -1.1071356E-07
  2.1310406E-07
   50.00000       27.77778      3.1751290E-07 -0.9520934     -1.8415082E-07
  2.5865597E-07
   50.00000       38.88889      4.4147578E-07 -0.9805912     -2.4569513E-07
  3.6678981E-07
   50.00000       50.00000      4.6940949E-07 -0.8540459     -3.0837299E-07
  3.5390869E-07
           1           2          12          11
           2           3          13          12
           3           4          14          13
           4           5          15          14
           5           6          16          15
           6           7          17          16
           7           8          18          17
           8           9          19          18
           9          10          20          19
          11          12          22          21
          12          13          23          22
          13          14          24          23
          14          15          25          24
          15          16          26          25
          16          17          27          26
          17          18          28          27
          18          19          29          28
          19          20          30          29
          21          22          32          31
          22          23          33          32
          23          24          34          33
          24          25          35          34
          25          26          36          35
          26          27          37          36
          27          28          38          37
          28          29          39          38
          29          30          40          39
          31          32          42          41
          32          33          43          42
          33          34          44          43
          34          35          45          44
          35          36          46          45
          36          37          47          46
          37          38          48          47
          38          39          49          48
          39          40          50          49
          41          42          52          51
          42          43          53          52
          43          44          54          53
          44          45          55          54
          45          46          56          55
          46          47          57          56
          47          48          58          57
          48          49          59          58
          49          50          60          59
          51          52          62          61
          52          53          63          62
          53          54          64          63
          54          55          65          64
          55          56          66          65
          56          57          67          66
          57          58          68          67
          58          59          69          68
          59          60          70          69
          61          62          72          71
          62          63          73          72
          63          64          74          73
          64          65          75          74
          65          66          76          75
          66          67          77          76
          67          68          78          77
          68          69          79          78
          69          70          80          79
          71          72          82          81
          72          73          83          82
          73          74          84          83
          74          75          85          84
          75          76          86          85
          76          77          87          86
          77          78          88          87
          78          79          89          88
          79          80          90          89
          81          82          92          91
          82          83          93          92
          83          84          94          93
          84          85          95          94
          85          86          96          95
          86          87          97          96
          87          88          98          97
          88          89          99          98
          89          90         100          99
