 VARIABLES="X" "Y" "abs(eta) (m)" "angle(phi) (rad)" "PRE1" "PRE2"
ZONE N=    100 ,E =      81 ,F=FEPOINT,ET=QUADRILATERAL
  -50.00000      -50.00000      1.5271312E-03   1.813679      3.6727815E-04
 -1.4823078E-03
  -50.00000      -38.88889      1.5834593E-03   1.335789     -3.6870866E-04
 -1.5399342E-03
  -50.00000      -27.77778      1.5669231E-03  0.9150195     -9.5547066E-04
 -1.2419033E-03
  -50.00000      -16.66667      1.5279405E-03  0.5844193     -1.2743522E-03
 -8.4298785E-04
  -50.00000      -5.555557      1.5023820E-03  0.3958451     -1.3862044E-03
 -5.7930051E-04
  -50.00000       5.555557      1.5023791E-03  0.3958231     -1.3862144E-03
 -5.7926890E-04
  -50.00000       16.66666      1.5279324E-03  0.5843588     -1.2743964E-03
 -8.4290630E-04
  -50.00000       27.77778      1.5669148E-03  0.9149340     -9.5557183E-04
 -1.2418150E-03
  -50.00000       38.88889      1.5834621E-03   1.335686     -3.6886838E-04
 -1.5398988E-03
  -50.00000       50.00000      1.5271557E-03   1.813567      3.6711694E-04
 -1.4823730E-03
  -38.88889      -50.00000      1.5834599E-03   1.335789     -3.6870857E-04
 -1.5399348E-03
  -38.88889      -38.88889      1.5498415E-03  0.7546214     -1.1291074E-03
 -1.0616615E-03
  -38.88889      -27.77778      1.4747132E-03  0.1912672     -1.4478206E-03
 -2.8034762E-04
  -38.88889      -16.66667      1.4290300E-03 -0.2904082     -1.3691923E-03
  4.0919328E-04
  -38.88889      -5.555557      1.4221659E-03 -0.5747076     -1.1936967E-03
  7.7307434E-04
  -38.88889       5.555557      1.4221661E-03 -0.5747415     -1.1936708E-03
  7.7311491E-04
  -38.88889       16.66666      1.4290254E-03 -0.2904990     -1.3691508E-03
  4.0931627E-04
  -38.88889       27.77778      1.4746988E-03  0.1911429     -1.4478412E-03
 -2.8016488E-04
  -38.88889       38.88889      1.5498261E-03  0.7544903     -1.1292355E-03
 -1.0615027E-03
  -38.88889       50.00000      1.5834626E-03   1.335656     -3.6891390E-04
 -1.5398884E-03
  -27.77778      -50.00000      1.5669230E-03  0.9150196     -9.5547043E-04
 -1.2419033E-03
  -27.77778      -38.88889      1.4747134E-03  0.1912672     -1.4478208E-03
 -2.8034765E-04
  -27.77778      -27.77778      1.4221657E-03 -0.5746724     -1.1937238E-03
  7.7303208E-04
  -27.77778      -16.66667      1.4916653E-03  -1.250623     -4.6947374E-04
  1.4158600E-03
  -27.77778      -5.555557      1.6022348E-03  -1.652443      1.3067131E-04
  1.5968974E-03
  -27.77778       5.555557      1.6022508E-03  -1.652491      1.3074990E-04
  1.5969070E-03
  -27.77778       16.66666      1.4916912E-03  -1.250752     -4.6929903E-04
  1.4159454E-03
  -27.77778       27.77778      1.4221681E-03 -0.5748447     -1.1935927E-03
  7.7323912E-04
  -27.77778       38.88889      1.4746921E-03  0.1910933     -1.4478486E-03
 -2.8009177E-04
  -27.77778       50.00000      1.5669083E-03  0.9148659     -9.5565256E-04
 -1.2417447E-03
  -16.66667      -50.00000      1.5279400E-03  0.5844190     -1.2743521E-03
 -8.4298727E-04
  -16.66667      -38.88889      1.4290308E-03 -0.2904079     -1.3691932E-03
  4.0919310E-04
  -16.66667      -27.77778      1.4916644E-03  -1.250622     -4.6947406E-04
  1.4158591E-03
  -16.66667      -16.66667      1.8051179E-03  -2.111263      9.2879863E-04
  1.5478320E-03
  -16.66667      -5.555557      2.1910353E-03  -2.672970      1.9548226E-03
  9.8959787E-04
  -16.66667       5.555557      2.1910965E-03  -2.673045      1.9549513E-03
  9.8947936E-04
  -16.66667       16.66666      1.8052146E-03  -2.111433      9.2911109E-04
  1.5477572E-03
  -16.66667       27.77778      1.4917093E-03  -1.250837     -4.6918384E-04
  1.4160025E-03
  -16.66667       38.88889      1.4290189E-03 -0.2906193     -1.3690953E-03
  4.0947914E-04
  -16.66667       50.00000      1.5279162E-03  0.5842383     -1.2744844E-03
 -8.4274384E-04
  -5.555557      -50.00000      1.5023823E-03  0.3958451     -1.3862046E-03
 -5.7930069E-04
  -5.555557      -38.88889      1.4221653E-03 -0.5747073     -1.1936965E-03
  7.7307352E-04
  -5.555557      -27.77778      1.6022348E-03  -1.652443      1.3067170E-04
  1.5968974E-03
  -5.555557      -16.66667      2.1910348E-03  -2.672970      1.9548221E-03
  9.8959787E-04
  -5.555557      -5.555557      3.6456729E-03   2.664833      3.2391315E-03
 -1.6730085E-03
  -5.555557       5.555557      3.6461933E-03   2.664651      3.2392901E-03
 -1.6738357E-03
  -5.555557       16.66666      2.1912204E-03  -2.673195      1.9552100E-03
  9.8924234E-04
  -5.555557       27.77778      1.6023194E-03  -1.652685      1.3106460E-04
  1.5969501E-03
  -5.555557       38.88889      1.4221690E-03 -0.5749475     -1.1935139E-03
  7.7336241E-04
  -5.555557       50.00000      1.5023553E-03  0.3956473     -1.3862944E-03
 -5.7901605E-04
   5.555557      -50.00000      1.5023793E-03  0.3958232     -1.3862145E-03
 -5.7926920E-04
   5.555557      -38.88889      1.4221658E-03 -0.5747415     -1.1936704E-03
  7.7311479E-04
   5.555557      -27.77778      1.6022512E-03  -1.652491      1.3074996E-04
  1.5969074E-03
   5.555557      -16.66667      2.1910965E-03  -2.673045      1.9549509E-03
  9.8948018E-04
   5.555557      -5.555557      3.6461914E-03   2.664653      3.2392915E-03
 -1.6738287E-03
   5.555557       5.555557      3.6467125E-03   2.664470      3.2394473E-03
 -1.6746622E-03
   5.555557       16.66666      2.1912830E-03  -2.673270      1.9553397E-03
  9.8912476E-04
   5.555557       27.77778      1.6023366E-03  -1.652733      1.3114286E-04
  1.5969609E-03
   5.555557       38.88889      1.4221701E-03 -0.5749823     -1.1934878E-03
  7.7340449E-04
   5.555557       50.00000      1.5023527E-03  0.3956251     -1.3863047E-03
 -5.7898427E-04
   16.66666      -50.00000      1.5279321E-03  0.5843582     -1.2743967E-03
 -8.4290549E-04
   16.66666      -38.88889      1.4290260E-03 -0.2904989     -1.3691514E-03
  4.0931624E-04
   16.66666      -27.77778      1.4916917E-03  -1.250752     -4.6929900E-04
  1.4159458E-03
   16.66666      -16.66667      1.8052140E-03  -2.111433      9.2911097E-04
  1.5477565E-03
   16.66666      -5.555557      2.1912213E-03  -2.673195      1.9552112E-03
  9.8924234E-04
   16.66666       5.555557      2.1912828E-03  -2.673270      1.9553397E-03
  9.8912464E-04
   16.66666       16.66666      1.8053098E-03  -2.111603      9.2942361E-04
  1.5476806E-03
   16.66666       27.77778      1.4917363E-03  -1.250967     -4.6900896E-04
  1.4160889E-03
   16.66666       38.88889      1.4290146E-03 -0.2907100     -1.3690540E-03
  4.0960207E-04
   16.66666       50.00000      1.5279067E-03  0.5841778     -1.2745276E-03
 -8.4266154E-04
   27.77778      -50.00000      1.5669146E-03  0.9149343     -9.5557130E-04
 -1.2418152E-03
   27.77778      -38.88889      1.4746985E-03  0.1911430     -1.4478409E-03
 -2.8016506E-04
   27.77778      -27.77778      1.4221674E-03 -0.5748441     -1.1935926E-03
  7.7323802E-04
   27.77778      -16.66667      1.4917086E-03  -1.250837     -4.6918378E-04
  1.4160018E-03
   27.77778      -5.555557      1.6023191E-03  -1.652685      1.3106443E-04
  1.5969498E-03
   27.77778       5.555557      1.6023363E-03  -1.652733      1.3114304E-04
  1.5969606E-03
   27.77778       16.66666      1.4917364E-03  -1.250967     -4.6900939E-04
  1.4160889E-03
   27.77778       27.77778      1.4221703E-03 -0.5750164     -1.1934617E-03
  7.7344524E-04
   27.77778       38.88889      1.4746765E-03  0.1909692     -1.4478680E-03
 -2.7990920E-04
   27.77778       50.00000      1.5668996E-03  0.9147804     -9.5575338E-04
 -1.2416561E-03
   38.88889      -50.00000      1.5834630E-03   1.335686     -3.6886847E-04
 -1.5398997E-03
   38.88889      -38.88889      1.5498264E-03  0.7544903     -1.1292357E-03
 -1.0615030E-03
   38.88889      -27.77778      1.4746928E-03  0.1910933     -1.4478492E-03
 -2.8009192E-04
   38.88889      -16.66667      1.4290191E-03 -0.2906191     -1.3690956E-03
  4.0947887E-04
   38.88889      -5.555557      1.4221692E-03 -0.5749478     -1.1935137E-03
  7.7336276E-04
   38.88889       5.555557      1.4221697E-03 -0.5749820     -1.1934878E-03
  7.7340397E-04
   38.88889       16.66666      1.4290144E-03 -0.2907100     -1.3690538E-03
  4.0960195E-04
   38.88889       27.77778      1.4746765E-03  0.1909693     -1.4478680E-03
 -2.7990926E-04
   38.88889       38.88889      1.5498110E-03  0.7543593     -1.1293634E-03
 -1.0613445E-03
   38.88889       50.00000      1.5834651E-03   1.335553     -3.6907362E-04
 -1.5398527E-03
   50.00000      -50.00000      1.5271553E-03   1.813567      3.6711682E-04
 -1.4823726E-03
   50.00000      -38.88889      1.5834628E-03   1.335656     -3.6891410E-04
 -1.5398886E-03
   50.00000      -27.77778      1.5669083E-03  0.9148661     -9.5565221E-04
 -1.2417450E-03
   50.00000      -16.66667      1.5279151E-03  0.5842379     -1.2744839E-03
 -8.4274280E-04
   50.00000      -5.555557      1.5023551E-03  0.3956475     -1.3862940E-03
 -5.7901628E-04
   50.00000       5.555557      1.5023521E-03  0.3956255     -1.3863039E-03
 -5.7898468E-04
   50.00000       16.66666      1.5279071E-03  0.5841779     -1.2745279E-03
 -8.4266177E-04
   50.00000       27.77778      1.5669004E-03  0.9147805     -9.5575367E-04
 -1.2416568E-03
   50.00000       38.88889      1.5834654E-03   1.335553     -3.6907362E-04
 -1.5398531E-03
   50.00000       50.00000      1.5271800E-03   1.813454      3.6695562E-04
 -1.4824379E-03
           1           2          12          11
           2           3          13          12
           3           4          14          13
           4           5          15          14
           5           6          16          15
           6           7          17          16
           7           8          18          17
           8           9          19          18
           9          10          20          19
          11          12          22          21
          12          13          23          22
          13          14          24          23
          14          15          25          24
          15          16          26          25
          16          17          27          26
          17          18          28          27
          18          19          29          28
          19          20          30          29
          21          22          32          31
          22          23          33          32
          23          24          34          33
          24          25          35          34
          25          26          36          35
          26          27          37          36
          27          28          38          37
          28          29          39          38
          29          30          40          39
          31          32          42          41
          32          33          43          42
          33          34          44          43
          34          35          45          44
          35          36          46          45
          36          37          47          46
          37          38          48          47
          38          39          49          48
          39          40          50          49
          41          42          52          51
          42          43          53          52
          43          44          54          53
          44          45          55          54
          45          46          56          55
          46          47          57          56
          47          48          58          57
          48          49          59          58
          49          50          60          59
          51          52          62          61
          52          53          63          62
          53          54          64          63
          54          55          65          64
          55          56          66          65
          56          57          67          66
          57          58          68          67
          58          59          69          68
          59          60          70          69
          61          62          72          71
          62          63          73          72
          63          64          74          73
          64          65          75          74
          65          66          76          75
          66          67          77          76
          67          68          78          77
          68          69          79          78
          69          70          80          79
          71          72          82          81
          72          73          83          82
          73          74          84          83
          74          75          85          84
          75          76          86          85
          76          77          87          86
          77          78          88          87
          78          79          89          88
          79          80          90          89
          81          82          92          91
          82          83          93          92
          83          84          94          93
          84          85          95          94
          85          86          96          95
          86          87          97          96
          87          88          98          97
          88          89          99          98
          89          90         100          99
