 VARIABLES="X" "Y" "abs(eta) (m)" "angle(phi) (rad)" "PRE1" "PRE2"
ZONE N=    100 ,E =      81 ,F=FEPOINT,ET=QUADRILATERAL
  -50.00000      -50.00000      1.1977887E-06  -1.387864     -2.1789401E-07
  1.1778030E-06
  -50.00000      -38.88889      7.7020047E-07  -1.388409     -1.3969722E-07
  7.5742554E-07
  -50.00000      -27.77778      8.7441981E-07  -1.509360     -5.3687540E-08
  8.7277010E-07
  -50.00000      -16.66667      6.4747201E-07  -1.620662      3.2273054E-08
  6.4666716E-07
  -50.00000      -5.555557      1.6987210E-07  -2.337977      1.1790972E-07
  1.2228584E-07
  -50.00000       5.555557      5.5877041E-07   1.942379      2.0288400E-07
 -5.2063660E-07
  -50.00000       16.66666      1.0714936E-06   1.841785      2.8682220E-07
 -1.0323911E-06
  -50.00000       27.77778      1.2933128E-06   1.860416      3.6935398E-07
 -1.2394497E-06
  -50.00000       38.88889      1.1951769E-06   1.957146      4.5035458E-07
 -1.1070811E-06
  -50.00000       50.00000      1.5916975E-06   1.904772      5.2176051E-07
 -1.5037509E-06
  -38.88889      -50.00000      1.0480137E-06  -1.355396     -2.2400067E-07
  1.0237951E-06
  -38.88889      -38.88889      1.5213139E-06  -1.480131     -1.3774098E-07
  1.5150655E-06
  -38.88889      -27.77778      1.6398448E-06  -1.539278     -5.1676622E-08
  1.6390303E-06
  -38.88889      -16.66667      1.2816902E-07  -1.835739      3.3561587E-08
  1.2369688E-07
  -38.88889      -5.555557      1.6657620E-07  -2.380275      1.2058909E-07
  1.1491694E-07
  -38.88889       5.555557      6.2412028E-07   1.908871      2.0700278E-07
 -5.8879198E-07
  -38.88889       16.66666      6.7048552E-07   2.022066      2.9240451E-07
 -6.0336589E-07
  -38.88889       27.77778      2.0906180E-06   1.750755      3.7419747E-07
 -2.0568568E-06
  -38.88889       38.88889      1.9468794E-06   1.806810      4.5523527E-07
 -1.8929078E-06
  -38.88889       50.00000      1.4739626E-06   1.942036      5.3471035E-07
 -1.3735540E-06
  -27.77778      -50.00000      1.7303186E-06  -1.441666     -2.2281668E-07
  1.7159123E-06
  -27.77778      -38.88889      2.3796190E-06  -1.513252     -1.3685793E-07
  2.3756802E-06
  -27.77778      -27.77778      1.5209650E-06  -1.536626     -5.1962473E-08
  1.5200771E-06
  -27.77778      -16.66667      2.8545812E-06  -1.583315      3.5733315E-08
  2.8543575E-06
  -27.77778      -5.555557      1.3230996E-06  -1.663967      1.2309583E-07
  1.3173610E-06
  -27.77778       5.555557      1.8922668E-06   1.681932      2.0986538E-07
 -1.8805930E-06
  -27.77778       16.66666      3.3843016E-06   1.658219      2.9548818E-07
 -3.3713773E-06
  -27.77778       27.77778      2.0341620E-06   1.758557      3.7969522E-07
 -1.9984111E-06
  -27.77778       38.88889      2.8361369E-06   1.733529      4.5949719E-07
 -2.7986666E-06
  -27.77778       50.00000      2.1546832E-06   1.823412      5.3853614E-07
 -2.0862979E-06
  -16.66667      -50.00000      2.3314417E-06  -1.475302     -2.2230249E-07
  2.3208192E-06
  -16.66667      -38.88889      6.2542790E-07  -1.346815     -1.3891615E-07
  6.0980517E-07
  -16.66667      -27.77778      4.9202563E-06  -1.560452     -5.0894062E-08
  4.9199930E-06
  -16.66667      -16.66667      5.4067041E-06  -1.577568      3.6613727E-08
  5.4065799E-06
  -16.66667      -5.555557      5.5897126E-06  -1.593078      1.2454053E-07
  5.5883252E-06
  -16.66667       5.555557      6.3245384E-06   1.604309      2.1191266E-07
 -6.3209873E-06
  -16.66667       16.66666      6.0653324E-06   1.619952      2.9802632E-07
 -6.0580060E-06
  -16.66667       27.77778      5.4701359E-06   1.640695      3.8204530E-07
 -5.4567781E-06
  -16.66667       38.88889      1.1825496E-06   1.974844      4.6491178E-07
 -1.0873273E-06
  -16.66667       50.00000      2.7697424E-06   1.767539      5.4141884E-07
 -2.7163098E-06
  -5.555557      -50.00000      2.6949051E-06  -1.488290     -2.2209493E-07
  2.6857379E-06
  -5.555557      -38.88889      2.2245265E-06  -1.508592     -1.3828493E-07
  2.2202241E-06
  -5.555557      -27.77778      7.6815568E-06  -1.564221     -5.0506845E-08
  7.6813903E-06
  -5.555557      -16.66667      1.7432707E-05  -1.572930      3.7197559E-08
  1.7432667E-05
  -5.555557      -5.555557      9.5561649E-05  -1.572107      1.2528483E-07
  9.5561569E-05
  -5.555557       5.555557      9.7300035E-05   1.572984      2.1288201E-07
 -9.7299802E-05
  -5.555557       16.66666      1.8268589E-05   1.587177      2.9923115E-07
 -1.8266139E-05
  -5.555557       27.77778      8.3181012E-06   1.616906      3.8340983E-07
 -8.3092600E-06
  -5.555557       38.88889      2.7463304E-06   1.741315      4.6603552E-07
 -2.7064998E-06
  -5.555557       50.00000      3.1473583E-06   1.744198      5.4302672E-07
 -3.1001591E-06
   5.555557      -50.00000      2.6930834E-06  -1.488250     -2.2205235E-07
  2.6839134E-06
   5.555557      -38.88889      2.2228871E-06  -1.508561     -1.3825183E-07
  2.2185836E-06
   5.555557      -27.77778      7.6659753E-06  -1.564212     -5.0471179E-08
  7.6658089E-06
   5.555557      -16.66667      1.7343058E-05  -1.572943      3.7226069E-08
  1.7343018E-05
   5.555557      -5.555557      9.5427393E-05  -1.572109      1.2528452E-07
  9.5427313E-05
   5.555557       5.555557      9.7588272E-05   1.572979      2.1296795E-07
 -9.7588039E-05
   5.555557       16.66666      1.8324386E-05   1.587124      2.9918672E-07
 -1.8321944E-05
   5.555557       27.77778      8.3342256E-06   1.616818      3.8342000E-07
 -8.3254008E-06
   5.555557       38.88889      2.7482281E-06   1.741215      4.6608656E-07
 -2.7084168E-06
   5.555557       50.00000      3.1492605E-06   1.744087      5.4300870E-07
 -3.1020934E-06
   16.66666      -50.00000      2.3268046E-06  -1.475123     -2.2227310E-07
  2.3161638E-06
   16.66666      -38.88889      6.2820476E-07  -1.348005     -1.3880349E-07
  6.1267838E-07
   16.66666      -27.77778      4.8926781E-06  -1.560412     -5.0805006E-08
  4.8924144E-06
   16.66666      -16.66667      5.3456574E-06  -1.577646      3.6617980E-08
  5.3455319E-06
   16.66666      -5.555557      5.3567173E-06  -1.594060      1.2460825E-07
  5.3552676E-06
   16.66666       5.555557      6.5246923E-06   1.603280      2.1190637E-07
 -6.5212503E-06
   16.66666       16.66666      6.1337337E-06   1.619424      2.9815021E-07
 -6.1264832E-06
   16.66666       27.77778      5.4993288E-06   1.640320      3.8202805E-07
 -5.4860434E-06
   16.66666       38.88889      1.1810580E-06   1.975436      4.6496828E-07
 -1.0856807E-06
   16.66666       50.00000      2.7743072E-06   1.767225      5.4145687E-07
 -2.7209567E-06
   27.77778      -50.00000      1.7261902E-06  -1.441404     -2.2273331E-07
  1.7117601E-06
   27.77778      -38.88889      2.3675855E-06  -1.512964     -1.3684549E-07
  2.3636273E-06
   27.77778      -27.77778      1.5127080E-06  -1.536479     -5.1902063E-08
  1.5118173E-06
   27.77778      -16.66667      2.8080299E-06  -1.583570      3.5867686E-08
  2.8078007E-06
   27.77778      -5.555557      1.2450380E-06  -1.669852      1.2312620E-07
  1.2389348E-06
   27.77778       5.555557      1.9708259E-06   1.677500      2.0989474E-07
 -1.9596171E-06
   27.77778       16.66666      3.4323759E-06   1.657012      2.9555977E-07
 -3.4196271E-06
   27.77778       27.77778      2.0437169E-06   1.757699      3.7975678E-07
 -2.0081243E-06
   27.77778       38.88889      2.8484312E-06   1.732835      4.5953905E-07
 -2.8111181E-06
   27.77778       50.00000      2.1591145E-06   1.822913      5.3860083E-07
 -2.0908574E-06
   38.88889      -50.00000      1.0474886E-06  -1.355299     -2.2398829E-07
  1.0232602E-06
   38.88889      -38.88889      1.5131893E-06  -1.479694     -1.3766363E-07
  1.5069143E-06
   38.88889      -27.77778      1.6230192E-06  -1.538942     -5.1691011E-08
  1.6221959E-06
   38.88889      -16.66667      1.3367786E-07  -1.825187      3.3640752E-08
  1.2937569E-07
   38.88889      -5.555557      1.5840939E-07  -2.438373      1.2082896E-07
  1.0243973E-07
   38.88889       5.555557      6.3637776E-07   1.902298      2.0711741E-07
 -6.0173005E-07
   38.88889       16.66666      6.6622630E-07   2.025337      2.9250674E-07
 -5.9857939E-07
   38.88889       27.77778      2.1077112E-06   1.749368      3.7437968E-07
 -2.0741954E-06
   38.88889       38.88889      1.9552394E-06   1.805821      4.5531084E-07
 -1.9014871E-06
   38.88889       50.00000      1.4748936E-06   1.941853      5.3479658E-07
 -1.3745195E-06
   50.00000      -50.00000      1.1928868E-06  -1.387201     -2.1778057E-07
  1.1728387E-06
   50.00000      -38.88889      7.6956866E-07  -1.388362     -1.3961834E-07
  7.5679765E-07
   50.00000      -27.77778      8.6680893E-07  -1.508956     -5.3569337E-08
  8.6515206E-07
   50.00000      -16.66667      6.3359806E-07  -1.621945      3.2393817E-08
  6.3276940E-07
   50.00000      -5.555557      1.5777889E-07  -2.416501      1.1808779E-07
  1.0463962E-07
   50.00000       5.555557      5.7527609E-07   1.931620      2.0309842E-07
 -5.3823192E-07
   50.00000       16.66666      1.0851705E-06   1.838425      2.8696797E-07
 -1.0465393E-06
   50.00000       27.77778      1.3010800E-06   1.858644      3.6936311E-07
 -1.2475497E-06
   50.00000       38.88889      1.1962336E-06   1.956918      4.5050018E-07
 -1.1081627E-06
   50.00000       50.00000      1.5965804E-06   1.903791      5.2188119E-07
 -1.5088767E-06
           1           2          12          11
           2           3          13          12
           3           4          14          13
           4           5          15          14
           5           6          16          15
           6           7          17          16
           7           8          18          17
           8           9          19          18
           9          10          20          19
          11          12          22          21
          12          13          23          22
          13          14          24          23
          14          15          25          24
          15          16          26          25
          16          17          27          26
          17          18          28          27
          18          19          29          28
          19          20          30          29
          21          22          32          31
          22          23          33          32
          23          24          34          33
          24          25          35          34
          25          26          36          35
          26          27          37          36
          27          28          38          37
          28          29          39          38
          29          30          40          39
          31          32          42          41
          32          33          43          42
          33          34          44          43
          34          35          45          44
          35          36          46          45
          36          37          47          46
          37          38          48          47
          38          39          49          48
          39          40          50          49
          41          42          52          51
          42          43          53          52
          43          44          54          53
          44          45          55          54
          45          46          56          55
          46          47          57          56
          47          48          58          57
          48          49          59          58
          49          50          60          59
          51          52          62          61
          52          53          63          62
          53          54          64          63
          54          55          65          64
          55          56          66          65
          56          57          67          66
          57          58          68          67
          58          59          69          68
          59          60          70          69
          61          62          72          71
          62          63          73          72
          63          64          74          73
          64          65          75          74
          65          66          76          75
          66          67          77          76
          67          68          78          77
          68          69          79          78
          69          70          80          79
          71          72          82          81
          72          73          83          82
          73          74          84          83
          74          75          85          84
          75          76          86          85
          76          77          87          86
          77          78          88          87
          78          79          89          88
          79          80          90          89
          81          82          92          91
          82          83          93          92
          83          84          94          93
          84          85          95          94
          85          86          96          95
          86          87          97          96
          87          88          98          97
          88          89          99          98
          89          90         100          99
