 VARIABLES="X" "Y" "abs(eta) (m)" "angle(phi) (rad)" "PRE1" "PRE2"
ZONE N=    100 ,E =      81 ,F=FEPOINT,ET=QUADRILATERAL
  -50.00000      -50.00000      2.5367230E-04   2.698529      2.2917835E-04
 -1.0875168E-04
  -50.00000      -38.88889      2.8233186E-04   2.640053      2.4756082E-04
 -1.3573846E-04
  -50.00000      -27.77778      3.0476766E-04   2.605407      2.6199766E-04
 -1.5569376E-04
  -50.00000      -16.66667      3.2255426E-04   2.573129      2.7182585E-04
 -1.7364320E-04
  -50.00000      -5.555557      3.3317960E-04   2.551139      2.7676835E-04
 -1.8549374E-04
  -50.00000       5.555557      3.3318100E-04   2.551136      2.7676902E-04
 -1.8549524E-04
  -50.00000       16.66666      3.2255772E-04   2.573123      2.7182762E-04
 -1.7364685E-04
  -50.00000       27.77778      3.0477220E-04   2.605400      2.6200051E-04
 -1.5569787E-04
  -50.00000       38.88889      2.8233812E-04   2.640040      2.4756452E-04
 -1.3574469E-04
  -50.00000       50.00000      2.5367906E-04   2.698516      2.2918305E-04
 -1.0875753E-04
  -38.88889      -50.00000      2.8233195E-04   2.640053      2.4756091E-04
 -1.3573843E-04
  -38.88889      -38.88889      3.1315198E-04   2.591184      2.6690285E-04
 -1.6378958E-04
  -38.88889      -27.77778      3.4529460E-04   2.525111      2.8173195E-04
 -1.9963832E-04
  -38.88889      -16.66667      3.7555012E-04   2.460436      2.9174419E-04
 -2.3648090E-04
  -38.88889      -5.555557      3.9482259E-04   2.421492      2.9680366E-04
 -2.6036988E-04
  -38.88889       5.555557      3.9482510E-04   2.421487      2.9680436E-04
 -2.6037288E-04
  -38.88889       16.66666      3.7555618E-04   2.460424      2.9174599E-04
 -2.3648830E-04
  -38.88889       27.77778      3.4530176E-04   2.525095      2.8173457E-04
 -1.9964704E-04
  -38.88889       38.88889      3.1315922E-04   2.591172      2.6690695E-04
 -1.6379674E-04
  -38.88889       50.00000      2.8233984E-04   2.640036      2.4756551E-04
 -1.3574645E-04
  -27.77778      -50.00000      3.0476775E-04   2.605407      2.6199777E-04
 -1.5569375E-04
  -27.77778      -38.88889      3.4529465E-04   2.525111      2.8173209E-04
 -1.9963826E-04
  -27.77778      -27.77778      3.9482009E-04   2.421496      2.9680293E-04
 -2.6036691E-04
  -27.77778      -16.66667      4.3202093E-04   2.361798      3.0719192E-04
 -3.0376835E-04
  -27.77778      -5.555557      4.7025416E-04   2.297449      3.1242351E-04
 -3.5146912E-04
  -27.77778       5.555557      4.7025990E-04   2.297440      3.1242421E-04
 -3.5147616E-04
  -27.77778       16.66666      4.3203073E-04   2.361781      3.0719370E-04
 -3.0378049E-04
  -27.77778       27.77778      3.9483202E-04   2.421474      2.9680604E-04
 -2.6038146E-04
  -27.77778       38.88889      3.4530481E-04   2.525089      2.8173585E-04
 -1.9965050E-04
  -27.77778       50.00000      3.0477581E-04   2.605395      2.6200275E-04
 -1.5570116E-04
  -16.66667      -50.00000      3.2255409E-04   2.573129      2.7182567E-04
 -1.7364314E-04
  -16.66667      -38.88889      3.7555007E-04   2.460436      2.9174419E-04
 -2.3648082E-04
  -16.66667      -27.77778      4.3202098E-04   2.361799      3.0719212E-04
 -3.0376823E-04
  -16.66667      -16.66667      5.2654475E-04   2.218494      3.1769183E-04
 -4.1990628E-04
  -16.66667      -5.555557      6.3111942E-04   2.108089      3.2301457E-04
 -5.4219307E-04
  -16.66667       5.555557      6.3114217E-04   2.108069      3.2301527E-04
 -5.4221915E-04
  -16.66667       16.66666      5.2655715E-04   2.218480      3.1769351E-04
 -4.1992051E-04
  -16.66667       27.77778      4.3203746E-04   2.361769      3.0719492E-04
 -3.0378884E-04
  -16.66667       38.88889      3.7556395E-04   2.460407      2.9174818E-04
 -2.3649793E-04
  -16.66667       50.00000      3.2256451E-04   2.573109      2.7183100E-04
 -1.7365417E-04
  -5.555557      -50.00000      3.3317966E-04   2.551139      2.7676841E-04
 -1.8549377E-04
  -5.555557      -38.88889      3.9482253E-04   2.421492      2.9680357E-04
 -2.6036988E-04
  -5.555557      -27.77778      4.7025413E-04   2.297449      3.1242362E-04
 -3.5146895E-04
  -5.555557      -16.66667      6.3111907E-04   2.108089      3.2301448E-04
 -5.4219272E-04
  -5.555557      -5.555557      1.1118535E-03   1.870562      3.2832616E-04
 -1.0622712E-03
  -5.555557       5.555557      1.1120674E-03   1.870503      3.2832671E-04
 -1.0624949E-03
  -5.555557       16.66666      6.3118764E-04   2.108028      3.2301640E-04
 -5.4227136E-04
  -5.555557       27.77778      4.7028187E-04   2.297405      3.1242642E-04
 -3.5150358E-04
  -5.555557       38.88889      3.9483939E-04   2.421460      2.9680788E-04
 -2.6039052E-04
  -5.555557       50.00000      3.3319113E-04   2.551114      2.7677338E-04
 -1.8550696E-04
   5.555557      -50.00000      3.3318080E-04   2.551136      2.7676887E-04
 -1.8549508E-04
   5.555557      -38.88889      3.9482489E-04   2.421487      2.9680418E-04
 -2.6037276E-04
   5.555557      -27.77778      4.7025969E-04   2.297440      3.1242412E-04
 -3.5147596E-04
   5.555557      -16.66667      6.3114183E-04   2.108069      3.2301497E-04
 -5.4221891E-04
   5.555557      -5.555557      1.1120675E-03   1.870503      3.2832683E-04
 -1.0624949E-03
   5.555557       5.555557      1.1122813E-03   1.870444      3.2832733E-04
 -1.0627187E-03
   5.555557       16.66666      6.3120981E-04   2.108008      3.2301695E-04
 -5.4229685E-04
   5.555557       27.77778      4.7028746E-04   2.297396      3.1242703E-04
 -3.5151051E-04
   5.555557       38.88889      3.9484163E-04   2.421455      2.9680840E-04
 -2.6039334E-04
   5.555557       50.00000      3.3319238E-04   2.551112      2.7677394E-04
 -1.8550835E-04
   16.66666      -50.00000      3.2255761E-04   2.573122      2.7182748E-04
 -1.7364684E-04
   16.66666      -38.88889      3.7555618E-04   2.460423      2.9174596E-04
 -2.3648835E-04
   16.66666      -27.77778      4.3203094E-04   2.361781      3.0719393E-04
 -3.0378054E-04
   16.66666      -16.66667      5.2655721E-04   2.218481      3.1769366E-04
 -4.1992049E-04
   16.66666      -5.555557      6.3118729E-04   2.108029      3.2301646E-04
 -5.4227095E-04
   16.66666       5.555557      6.3120964E-04   2.108008      3.2301695E-04
 -5.4229662E-04
   16.66666       16.66666      5.2656949E-04   2.218467      3.1769529E-04
 -4.1993469E-04
   16.66666       27.77778      4.3204738E-04   2.361752      3.0719675E-04
 -3.0380109E-04
   16.66666       38.88889      3.7556997E-04   2.460395      2.9174989E-04
 -2.3650538E-04
   16.66666       50.00000      3.2256788E-04   2.573102      2.7183263E-04
 -1.7365790E-04
   27.77778      -50.00000      3.0477223E-04   2.605401      2.6200057E-04
 -1.5569782E-04
   27.77778      -38.88889      3.4530219E-04   2.525095      2.8173506E-04
 -1.9964707E-04
   27.77778      -27.77778      3.9483205E-04   2.421473      2.9680590E-04
 -2.6038164E-04
   27.77778      -16.66667      4.3203746E-04   2.361770      3.0719503E-04
 -3.0378872E-04
   27.77778      -5.555557      4.7028170E-04   2.297405      3.1242648E-04
 -3.5150329E-04
   27.77778       5.555557      4.7028725E-04   2.297397      3.1242712E-04
 -3.5151019E-04
   27.77778       16.66666      4.3204735E-04   2.361752      3.0719672E-04
 -3.0380106E-04
   27.77778       27.77778      3.9484401E-04   2.421450      2.9680895E-04
 -2.6039631E-04
   27.77778       38.88889      3.4531212E-04   2.525073      2.8173864E-04
 -1.9965922E-04
   27.77778       50.00000      3.0478035E-04   2.605388      2.6200557E-04
 -1.5570527E-04
   38.88889      -50.00000      2.8233818E-04   2.640040      2.4756460E-04
 -1.3574466E-04
   38.88889      -38.88889      3.1315902E-04   2.591172      2.6690678E-04
 -1.6379668E-04
   38.88889      -27.77778      3.4530499E-04   2.525089      2.8173605E-04
 -1.9965055E-04
   38.88889      -16.66667      3.7556404E-04   2.460407      2.9174818E-04
 -2.3649809E-04
   38.88889      -5.555557      3.9483924E-04   2.421459      2.9680773E-04
 -2.6039046E-04
   38.88889       5.555557      3.9484163E-04   2.421455      2.9680834E-04
 -2.6039340E-04
   38.88889       16.66666      3.7557000E-04   2.460395      2.9174986E-04
 -2.3650547E-04
   38.88889       27.77778      3.4531223E-04   2.525073      2.8173873E-04
 -1.9965926E-04
   38.88889       38.88889      3.1316609E-04   2.591159      2.6691071E-04
 -1.6380376E-04
   38.88889       50.00000      2.8234607E-04   2.640023      2.4756923E-04
 -1.3575263E-04
   50.00000      -50.00000      2.5367891E-04   2.698516      2.2918287E-04
 -1.0875753E-04
   50.00000      -38.88889      2.8233996E-04   2.640036      2.4756565E-04
 -1.3574642E-04
   50.00000      -27.77778      3.0477581E-04   2.605395      2.6200278E-04
 -1.5570108E-04
   50.00000      -16.66667      3.2256448E-04   2.573109      2.7183094E-04
 -1.7365417E-04
   50.00000      -5.555557      3.3319127E-04   2.551115      2.7677356E-04
 -1.8550696E-04
   50.00000       5.555557      3.3319258E-04   2.551112      2.7677414E-04
 -1.8550841E-04
   50.00000       16.66666      3.2256785E-04   2.573102      2.7183260E-04
 -1.7365786E-04
   50.00000       27.77778      3.0478035E-04   2.605388      2.6200557E-04
 -1.5570527E-04
   50.00000       38.88889      2.8234613E-04   2.640023      2.4756932E-04
 -1.3575261E-04
   50.00000       50.00000      2.5368569E-04   2.698503      2.2918760E-04
 -1.0876338E-04
           1           2          12          11
           2           3          13          12
           3           4          14          13
           4           5          15          14
           5           6          16          15
           6           7          17          16
           7           8          18          17
           8           9          19          18
           9          10          20          19
          11          12          22          21
          12          13          23          22
          13          14          24          23
          14          15          25          24
          15          16          26          25
          16          17          27          26
          17          18          28          27
          18          19          29          28
          19          20          30          29
          21          22          32          31
          22          23          33          32
          23          24          34          33
          24          25          35          34
          25          26          36          35
          26          27          37          36
          27          28          38          37
          28          29          39          38
          29          30          40          39
          31          32          42          41
          32          33          43          42
          33          34          44          43
          34          35          45          44
          35          36          46          45
          36          37          47          46
          37          38          48          47
          38          39          49          48
          39          40          50          49
          41          42          52          51
          42          43          53          52
          43          44          54          53
          44          45          55          54
          45          46          56          55
          46          47          57          56
          47          48          58          57
          48          49          59          58
          49          50          60          59
          51          52          62          61
          52          53          63          62
          53          54          64          63
          54          55          65          64
          55          56          66          65
          56          57          67          66
          57          58          68          67
          58          59          69          68
          59          60          70          69
          61          62          72          71
          62          63          73          72
          63          64          74          73
          64          65          75          74
          65          66          76          75
          66          67          77          76
          67          68          78          77
          68          69          79          78
          69          70          80          79
          71          72          82          81
          72          73          83          82
          73          74          84          83
          74          75          85          84
          75          76          86          85
          76          77          87          86
          77          78          88          87
          78          79          89          88
          79          80          90          89
          81          82          92          91
          82          83          93          92
          83          84          94          93
          84          85          95          94
          85          86          96          95
          86          87          97          96
          87          88          98          97
          88          89          99          98
          89          90         100          99
