 VARIABLES="X" "Y" "abs(eta) (m)" "angle(phi) (rad)" "PRE1" "PRE2"
ZONE N=    100 ,E =      81 ,F=FEPOINT,ET=QUADRILATERAL
  -50.00000      -50.00000      6.3531945E-05   2.297053      4.2189997E-05
 -4.7500656E-05
  -50.00000      -38.88889      5.7360376E-05   1.831758      1.4799536E-05
 -5.5418284E-05
  -50.00000      -27.77778      4.7770540E-05   1.446784     -5.9089771E-06
 -4.7403675E-05
  -50.00000      -16.66667      3.2546770E-05   1.160663     -1.2977429E-05
 -2.9847590E-05
  -50.00000      -5.555557      1.2001867E-05  0.9544308     -6.9379585E-06
 -9.7933416E-06
  -50.00000       5.555557      1.2072143E-05  -1.980970      4.8139896E-06
  1.1070779E-05
  -50.00000       16.66666      3.2529329E-05  -1.904962      1.0669005E-05
  3.0729945E-05
  -50.00000       27.77778      4.7635058E-05  -1.642670      3.4207505E-06
  4.7512076E-05
  -50.00000       38.88889      5.7150355E-05  -1.265352     -1.7186054E-05
  5.4505072E-05
  -50.00000       50.00000      6.3352149E-05 -0.8030576     -4.3998705E-05
  4.5580797E-05
  -38.88889      -50.00000      7.3711453E-05   1.836694      1.9369576E-05
 -7.1121009E-05
  -38.88889      -38.88889      7.2861585E-05   1.325847     -1.7669467E-05
 -7.0686634E-05
  -38.88889      -27.77778      6.2743173E-05  0.8799428     -3.9979648E-05
 -4.8356316E-05
  -38.88889      -16.66667      4.4800221E-05  0.5372910     -3.8487793E-05
 -2.2929229E-05
  -38.88889      -5.555557      1.6784075E-05  0.3089494     -1.5989408E-05
 -5.1033312E-06
  -38.88889       5.555557      1.7317989E-05  -2.676185      1.5476027E-05
  7.7720861E-06
  -38.88889       16.66666      4.5181241E-05  -2.546912      3.7424867E-05
  2.5312527E-05
  -38.88889       27.77778      6.2897620E-05  -2.222056      3.8127844E-05
  5.0023777E-05
  -38.88889       38.88889      7.2790397E-05  -1.781848      1.5248734E-05
  7.1175265E-05
  -38.88889       50.00000      7.3502408E-05  -1.270357     -2.1752317E-05
  7.0209979E-05
  -27.77778      -50.00000      8.5912063E-05   1.458373     -9.6381964E-06
 -8.5369713E-05
  -27.77778      -38.88889      8.7863074E-05  0.8856523     -5.5598397E-05
 -6.8034831E-05
  -27.77778      -27.77778      8.4734769E-05  0.3727941     -7.8914622E-05
 -3.0862015E-05
  -27.77778      -16.66667      6.6156477E-05 -6.1167207E-02 -6.6032757E-05
  4.0440841E-06
  -27.77778      -5.555557      2.6829068E-05 -0.3444248     -2.5253392E-05
  9.0589774E-06
  -27.77778       5.555557      2.7878663E-05   2.914033      2.7159949E-05
 -6.2894337E-06
  -27.77778       16.66666      6.7007779E-05   3.124596      6.6998102E-05
 -1.1388213E-06
  -27.77778       27.77778      8.5274296E-05  -2.737754      7.8414771E-05
  3.3508652E-05
  -27.77778       38.88889      8.8018314E-05  -2.227779      5.3755452E-05
  6.9696303E-05
  -27.77778       50.00000      8.5779415E-05  -1.654355      7.1592394E-06
  8.5480133E-05
  -16.66667      -50.00000      9.7561046E-05   1.186022     -3.6619578E-05
 -9.0427675E-05
  -16.66667      -38.88889      1.0475258E-04  0.5539277     -8.9088404E-05
 -5.5103170E-05
  -16.66667      -27.77778      1.1051985E-04 -5.2041437E-02 -1.1037022E-04
  5.7490161E-06
  -16.66667      -16.66667      1.0867223E-04 -0.5920147     -9.0178175E-05
  6.0642800E-05
  -16.66667      -5.555557      6.0839804E-05  -1.000417     -3.2850530E-05
  5.1208637E-05
  -16.66667       5.555557      6.2375868E-05   2.208752      3.7148231E-05
 -5.0107465E-05
  -16.66667       16.66666      1.1002325E-04   2.581336      9.3202732E-05
 -5.8466801E-05
  -16.66667       27.77778      1.1138948E-04   3.115615      1.1135190E-04
 -2.8932975E-06
  -16.66667       38.88889      1.0513765E-04  -2.563418      8.8048735E-05
  5.7457335E-05
  -16.66667       50.00000      9.7545591E-05  -1.930432      3.4329529E-05
  9.1305126E-05
  -5.555557      -50.00000      1.0773216E-04   1.046379     -5.3942440E-05
 -9.3254661E-05
  -5.555557      -38.88889      1.1872843E-04  0.3773829     -1.1037377E-04
 -4.3750100E-05
  -5.555557      -27.77778      1.3598736E-04 -0.2961506     -1.3006742E-04
  3.9686627E-05
  -5.555557      -16.66667      1.8380879E-04 -0.9770237     -1.0283953E-04
  1.5234730E-04
  -5.555557      -5.555557      3.7153286E-04  -1.470035     -3.7372734E-05
  3.6964842E-04
  -5.555557       5.555557      3.7604914E-04   1.685784      4.3145643E-05
 -3.7356580E-04
  -5.555557       16.66666      1.8568583E-04   2.185947      1.0715592E-04
 -1.5164707E-04
  -5.555557       27.77778      1.3711404E-04   2.867791      1.3200653E-04
 -3.7074708E-05
  -5.555557       38.88889      1.1927356E-04  -2.742392      1.0989531E-04
  4.6359495E-05
  -5.555557       50.00000      1.0780414E-04  -2.072510      5.1846062E-05
  9.4518349E-05
   5.555557      -50.00000      1.0773331E-04   1.046370     -5.3943830E-05
 -9.3255185E-05
   5.555557      -38.88889      1.1872890E-04  0.3774301     -1.1037214E-04
 -4.3755485E-05
   5.555557      -27.77778      1.3597455E-04 -0.2959713     -1.3006228E-04
  3.9659568E-05
   5.555557      -16.66667      1.8368235E-04 -0.9766048     -1.0283255E-04
  1.5219946E-04
   5.555557      -5.555557      3.7118295E-04  -1.469966     -3.7363057E-05
  3.6929769E-04
   5.555557       5.555557      3.7703721E-04   1.685506      4.3154960E-05
 -3.7455934E-04
   5.555557       16.66666      1.8584781E-04   2.185383      1.0716365E-04
 -1.5183991E-04
   5.555557       27.77778      1.3713246E-04   2.867537      1.3201484E-04
 -3.7113270E-05
   5.555557       38.88889      1.1927480E-04  -2.742485      1.0990078E-04
  4.6349734E-05
   5.555557       50.00000      1.0780386E-04  -2.072538      5.1848638E-05
  9.4516618E-05
   16.66666      -50.00000      9.7563607E-05   1.186008     -3.6621725E-05
 -9.0429567E-05
   16.66666      -38.88889      1.0475665E-04  0.5540352     -8.9085937E-05
 -5.5114884E-05
   16.66666      -27.77778      1.1050792E-04 -5.1598623E-02 -1.1036084E-04
  5.6995268E-06
   16.66666      -16.66667      1.0856286E-04 -0.5908098     -9.0160356E-05
  6.0473176E-05
   16.66666      -5.555557      6.0416052E-05 -0.9963884     -3.2826327E-05
  5.0720129E-05
   16.66666       5.555557      6.2820414E-05   2.204007      3.7173108E-05
 -5.0641527E-05
   16.66666       16.66666      1.1015445E-04   2.579844      9.3226481E-05
 -5.8675607E-05
   16.66666       27.77778      1.1141180E-04   3.115005      1.1137242E-04
 -2.9618313E-06
   16.66666       38.88889      1.0513929E-04  -2.563657      8.8063854E-05
  5.7437159E-05
   16.66666       50.00000      9.7546304E-05  -1.930517      3.4337590E-05
  9.1302856E-05
   27.77778      -50.00000      8.5914820E-05   1.458306     -9.6442345E-06
 -8.5371808E-05
   27.77778      -38.88889      8.7868990E-05  0.8857169     -5.5597742E-05
 -6.8043002E-05
   27.77778      -27.77778      8.4735897E-05  0.3731810     -7.8903722E-05
 -3.0892952E-05
   27.77778      -16.66667      6.6131557E-05 -5.9837196E-02 -6.6013199E-05
  3.9547658E-06
   27.77778      -5.555557      2.6748736E-05 -0.3391917     -2.5224697E-05
  8.8999732E-06
   27.77778       5.555557      2.7948598E-05   2.908380      2.7191996E-05
 -6.4590558E-06
   27.77778       16.66666      6.7040441E-05   3.122991      6.7028843E-05
 -1.2469826E-06
   27.77778       27.77778      8.5279455E-05  -2.738360      7.8439807E-05
  3.3463140E-05
   27.77778       38.88889      8.8018562E-05  -2.228030      5.3773121E-05
  6.9682988E-05
   27.77778       50.00000      8.5781518E-05  -1.654452      7.1677846E-06
  8.5481530E-05
   38.88889      -50.00000      7.3710755E-05   1.836569      1.9360481E-05
 -7.1122762E-05
   38.88889      -38.88889      7.2863782E-05   1.325796     -1.7673601E-05
 -7.0687871E-05
   38.88889      -27.77778      6.2749838E-05  0.8801237     -3.9975148E-05
 -4.8368685E-05
   38.88889      -16.66667      4.4805707E-05  0.5381120     -3.8473667E-05
 -2.2963628E-05
   38.88889      -5.555557      1.6777947E-05  0.3122576     -1.5966607E-05
 -5.1543166E-06
   38.88889       5.555557      1.7317325E-05  -2.679728      1.5502872E-05
  7.7169088E-06
   38.88889       16.66666      4.5180481E-05  -2.547975      3.7451122E-05
  2.5272304E-05
   38.88889       27.77778      6.2896368E-05  -2.222487      3.8148646E-05
  5.0006340E-05
   38.88889       38.88889      7.2791263E-05  -1.782004      1.5260008E-05
  7.1173730E-05
   38.88889       50.00000      7.3507363E-05  -1.270402     -2.1750628E-05
  7.0215683E-05
   50.00000      -50.00000      6.3524785E-05   2.296853      4.2175772E-05
 -4.7503709E-05
   50.00000      -38.88889      5.7359452E-05   1.831586      1.4789791E-05
 -5.5419932E-05
   50.00000      -27.77778      4.7773276E-05   1.446704     -5.9130889E-06
 -4.7405920E-05
   50.00000      -16.66667      3.2551350E-05   1.160823     -1.2974473E-05
 -2.9853869E-05
   50.00000      -5.555557      1.2003709E-05  0.9555382     -6.9281723E-06
 -9.8025230E-06
   50.00000       5.555557      1.2068079E-05  -1.982388      4.8280567E-06
  1.1060217E-05
   50.00000       16.66666      3.2527343E-05  -1.905404      1.0681936E-05
  3.0723349E-05
   50.00000       27.77778      4.7637084E-05  -1.642849      3.4294283E-06
  4.7513480E-05
   50.00000       38.88889      5.7155503E-05  -1.265417     -1.7184091E-05
  5.4511085E-05
   50.00000       50.00000      6.3359948E-05 -0.8030750     -4.4003333E-05
  4.5587170E-05
           1           2          12          11
           2           3          13          12
           3           4          14          13
           4           5          15          14
           5           6          16          15
           6           7          17          16
           7           8          18          17
           8           9          19          18
           9          10          20          19
          11          12          22          21
          12          13          23          22
          13          14          24          23
          14          15          25          24
          15          16          26          25
          16          17          27          26
          17          18          28          27
          18          19          29          28
          19          20          30          29
          21          22          32          31
          22          23          33          32
          23          24          34          33
          24          25          35          34
          25          26          36          35
          26          27          37          36
          27          28          38          37
          28          29          39          38
          29          30          40          39
          31          32          42          41
          32          33          43          42
          33          34          44          43
          34          35          45          44
          35          36          46          45
          36          37          47          46
          37          38          48          47
          38          39          49          48
          39          40          50          49
          41          42          52          51
          42          43          53          52
          43          44          54          53
          44          45          55          54
          45          46          56          55
          46          47          57          56
          47          48          58          57
          48          49          59          58
          49          50          60          59
          51          52          62          61
          52          53          63          62
          53          54          64          63
          54          55          65          64
          55          56          66          65
          56          57          67          66
          57          58          68          67
          58          59          69          68
          59          60          70          69
          61          62          72          71
          62          63          73          72
          63          64          74          73
          64          65          75          74
          65          66          76          75
          66          67          77          76
          67          68          78          77
          68          69          79          78
          69          70          80          79
          71          72          82          81
          72          73          83          82
          73          74          84          83
          74          75          85          84
          75          76          86          85
          76          77          87          86
          77          78          88          87
          78          79          89          88
          79          80          90          89
          81          82          92          91
          82          83          93          92
          83          84          94          93
          84          85          95          94
          85          86          96          95
          86          87          97          96
          87          88          98          97
          88          89          99          98
          89          90         100          99
