 VARIABLES="X" "Y" "abs(eta) (m)" "angle(phi) (rad)" "PRE1" "PRE2"
ZONE N=    100 ,E =      81 ,F=FEPOINT,ET=QUADRILATERAL
  -50.00000      -50.00000      1.7042444E-07   1.822023      4.2366143E-08
 -1.6507452E-07
  -50.00000      -38.88889      1.5432754E-07   1.856404      4.3480259E-08
 -1.4807584E-07
  -50.00000      -27.77778      2.3800217E-07   1.754935      4.3578186E-08
 -2.3397858E-07
  -50.00000      -16.66667      3.1268328E-07   1.710962      4.3684043E-08
 -3.0961675E-07
  -50.00000      -5.555557      3.5835191E-07   1.693191      4.3750909E-08
 -3.5567112E-07
  -50.00000       5.555557      3.5861129E-07   1.693114      4.3755257E-08
 -3.5593192E-07
  -50.00000       16.66666      3.1329006E-07   1.710708      4.3689969E-08
 -3.1022870E-07
  -50.00000       27.77778      2.3858573E-07   1.754524      4.3588624E-08
 -2.3457021E-07
  -50.00000       38.88889      1.5442825E-07   1.856284      4.3490861E-08
 -1.4817769E-07
  -50.00000       50.00000      1.7107091E-07   1.821118      4.2376975E-08
 -1.6573910E-07
  -38.88889      -50.00000      1.1946474E-07   1.850146      3.2940029E-08
 -1.1483370E-07
  -38.88889      -38.88889      2.1147149E-07   1.727638      3.3031679E-08
 -2.0887579E-07
  -38.88889      -27.77778      3.1845244E-07   1.675149      3.3171141E-08
 -3.1672010E-07
  -38.88889      -16.66667      1.0764830E-07   1.888250      3.3602202E-08
 -1.0226949E-07
  -38.88889      -5.555557      3.0279736E-07   1.682035      3.3613286E-08
 -3.0092588E-07
  -38.88889       5.555557      3.0306069E-07   1.681943      3.3614995E-08
 -3.0119065E-07
  -38.88889       16.66666      1.0741213E-07   1.888976      3.3602625E-08
 -1.0202073E-07
  -38.88889       27.77778      3.2006983E-07   1.674646      3.3179582E-08
 -3.1834543E-07
  -38.88889       38.88889      2.1257711E-07   1.726852      3.3039349E-08
 -2.0999387E-07
  -38.88889       50.00000      1.1960326E-07   1.849883      3.2948051E-08
 -1.1497550E-07
  -27.77778      -50.00000      1.3083324E-07   1.743016      2.2420789E-08
 -1.2889781E-07
  -27.77778      -38.88889      2.2613153E-07   1.670605      2.2532374E-08
 -2.2500613E-07
  -27.77778      -27.77778      2.1480884E-07   1.677190      2.2811236E-08
 -2.1359421E-07
  -27.77778      -16.66667      6.3456906E-07   1.606811      2.2848804E-08
 -6.3415757E-07
  -27.77778      -5.555557      9.8032262E-07   1.594147      2.2889260E-08
 -9.8005535E-07
  -27.77778       5.555557      9.8244527E-07   1.594095      2.2887624E-08
 -9.8217868E-07
  -27.77778       16.66666      6.3838689E-07   1.606609      2.2857506E-08
 -6.3797756E-07
  -27.77778       27.77778      2.1606468E-07   1.676619      2.2821990E-08
 -2.1485600E-07
  -27.77778       38.88889      2.2839076E-07   1.669599      2.2528930E-08
 -2.2727690E-07
  -27.77778       50.00000      1.3186745E-07   1.741729      2.2430827E-08
 -1.2994569E-07
  -16.66667      -50.00000      1.0178113E-07   1.687484      1.1849711E-08
 -1.0108899E-07
  -16.66667      -38.88889      4.4181913E-08   1.846265      1.2017381E-08
 -4.2516163E-08
  -16.66667      -27.77778      3.7718451E-07   1.602676      1.2022396E-08
 -3.7699286E-07
  -16.66667      -16.66667      6.9442973E-07   1.588217      1.2096910E-08
 -6.9432434E-07
  -16.66667      -5.555557      2.1771234E-06   1.576358      1.2108577E-08
 -2.1770898E-06
  -16.66667       5.555557      2.1851470E-06   1.576335      1.2102571E-08
 -2.1851135E-06
  -16.66667       16.66666      7.0333328E-07   1.587999      1.2098893E-08
 -7.0322920E-07
  -16.66667       27.77778      3.8348560E-07   1.602178      1.2032476E-08
 -3.8329679E-07
  -16.66667       38.88889      4.3565205E-08   1.850754      1.2037719E-08
 -4.1869086E-08
  -16.66667       50.00000      1.0361482E-07   1.685542      1.1863321E-08
 -1.0293343E-07
  -5.555557      -50.00000      3.6497564E-08   1.604401      1.2262562E-09
 -3.6476958E-08
  -5.555557      -38.88889      3.9685357E-08   1.601727      1.2273134E-09
 -3.9666375E-08
  -5.555557      -27.77778      1.8729644E-07   1.577159      1.1916806E-09
 -1.8729264E-07
  -5.555557      -16.66667      7.0747541E-07   1.572468      1.1826208E-09
 -7.0747444E-07
  -5.555557      -5.555557      1.2029329E-05   1.570894      1.1758519E-09
 -1.2029329E-05
  -5.555557       5.555557      1.2066263E-05   1.570894      1.1843068E-09
 -1.2066263E-05
  -5.555557       16.66666      7.3384803E-07   1.572413      1.1866579E-09
 -7.3384706E-07
  -5.555557       27.77778      1.9767835E-07   1.576838      1.1942098E-09
 -1.9767474E-07
  -5.555557       38.88889      4.1375252E-08   1.600652      1.2351078E-09
 -4.1356813E-08
  -5.555557       50.00000      3.8811866E-08   1.602855      1.2440567E-09
 -3.8791921E-08
   5.555557      -50.00000      4.4086789E-08  -1.356009     -9.3966523E-09
  4.3073751E-08
   5.555557      -38.88889      4.8145274E-08  -1.370691     -9.5699715E-09
  4.7184564E-08
   5.555557      -27.77778      2.0726407E-07  -1.524175     -9.6594173E-09
  2.0703885E-07
   5.555557      -16.66667      7.5168447E-07  -1.557841     -9.7377226E-09
  7.5162137E-07
   5.555557      -5.555557      1.2103969E-05  -1.569988     -9.7783959E-09
  1.2103966E-05
   5.555557       5.555557      1.2086366E-05  -1.569987     -9.7762287E-09
  1.2086362E-05
   5.555557       16.66666      7.2158838E-07  -1.557307     -9.7332435E-09
  7.2152272E-07
   5.555557       27.77778      1.9700089E-07  -1.521760     -9.6562456E-09
  1.9676409E-07
   5.555557       38.88889      4.6534606E-08  -1.363930     -9.5579464E-09
  4.5542453E-08
   5.555557       50.00000      4.1830148E-08  -1.344481     -9.3861967E-09
  4.0763471E-08
   16.66666      -50.00000      1.0868676E-07  -1.385962     -1.9974909E-08
  1.0683546E-07
   16.66666      -38.88889      5.1629968E-08  -1.166240     -2.0322130E-08
  4.7462244E-08
   16.66666      -27.77778      3.9139343E-07  -1.518526     -2.0449118E-08
  3.9085887E-07
   16.66666      -16.66667      7.1441298E-07  -1.541950     -2.0605244E-08
  7.1411574E-07
   16.66666      -5.555557      2.1964347E-06  -1.561392     -2.0654973E-08
  2.1963376E-06
   16.66666       5.555557      2.1855499E-06  -1.561346     -2.0654300E-08
  2.1854523E-06
   16.66666       16.66666      7.0634763E-07  -1.541629     -2.0599199E-08
  7.0604722E-07
   16.66666       27.77778      3.8526866E-07  -1.517715     -2.0440877E-08
  3.8472604E-07
   16.66666       38.88889      5.2317631E-08  -1.171955     -2.0317582E-08
  4.8211309E-08
   16.66666       50.00000      1.0688967E-07  -1.382922     -1.9963881E-08
  1.0500878E-07
   27.77778      -50.00000      1.3668648E-07  -1.346081     -3.0457748E-08
  1.3324984E-07
   27.77778      -38.88889      2.3401091E-07  -1.439086     -3.0732622E-08
  2.3198407E-07
   27.77778      -27.77778      2.2290990E-07  -1.430564     -3.1156848E-08
  2.2072172E-07
   27.77778      -16.66667      6.4640807E-07  -1.522398     -3.1273029E-08
  6.4565114E-07
   27.77778      -5.555557      9.9227930E-07  -1.539195     -3.1352076E-08
  9.9178385E-07
   27.77778       5.555557      9.9026204E-07  -1.539132     -3.1350968E-08
  9.8976568E-07
   27.77778       16.66666      6.4276588E-07  -1.522136     -3.1265017E-08
  6.4200503E-07
   27.77778       27.77778      2.2181239E-07  -1.429917     -3.1145419E-08
  2.1961489E-07
   27.77778       38.88889      2.3180750E-07  -1.437877     -3.0721090E-08
  2.2976278E-07
   27.77778       50.00000      1.3570191E-07  -1.344523     -3.0444376E-08
  1.3224276E-07
   38.88889      -50.00000      1.2460613E-07  -1.236834     -4.0844476E-08
  1.1772178E-07
   38.88889      -38.88889      2.1750007E-07  -1.380612     -4.1116259E-08
  2.1357840E-07
   38.88889      -27.77778      3.2570347E-07  -1.443399     -4.1381654E-08
  3.2306394E-07
   38.88889      -16.66667      1.1559419E-07  -1.199964     -4.1890292E-08
  1.0773681E-07
   38.88889      -5.555557      3.1005158E-07  -1.435100     -4.1943967E-08
  3.0720136E-07
   38.88889       5.555557      3.0983796E-07  -1.435003     -4.1944801E-08
  3.0698567E-07
   38.88889       16.66666      1.1591850E-07  -1.201181     -4.1876362E-08
  1.0809010E-07
   38.88889       27.77778      3.2414545E-07  -1.442790     -4.1379565E-08
  3.2149339E-07
   38.88889       38.88889      2.1644476E-07  -1.379750     -4.1099920E-08
  2.1250678E-07
   38.88889       50.00000      1.2450027E-07  -1.236635     -4.0833207E-08
  1.1761363E-07
   50.00000      -50.00000      1.7532319E-07  -1.280970     -5.0104877E-08
  1.6801108E-07
   50.00000      -38.88889      1.5944643E-07  -1.242665     -5.1385484E-08
  1.5093939E-07
   50.00000      -27.77778      2.4343322E-07  -1.357161     -5.1611273E-08
  2.3789914E-07
   50.00000      -16.66667      3.1841350E-07  -1.407383     -5.1801585E-08
  3.1417153E-07
   50.00000      -5.555557      3.6396537E-07  -1.427694     -5.1906706E-08
  3.6024502E-07
   50.00000       5.555557      3.6372842E-07  -1.427595     -5.1908614E-08
  3.6000534E-07
   50.00000       16.66666      3.1782338E-07  -1.407095     -5.1795936E-08
  3.1357436E-07
   50.00000       27.77778      2.4288164E-07  -1.356709     -5.1601511E-08
  2.3733685E-07
   50.00000       38.88889      1.5936911E-07  -1.242603     -5.1370009E-08
  1.5086297E-07
   50.00000       50.00000      1.7469416E-07  -1.279967     -5.0093057E-08
  1.6735811E-07
           1           2          12          11
           2           3          13          12
           3           4          14          13
           4           5          15          14
           5           6          16          15
           6           7          17          16
           7           8          18          17
           8           9          19          18
           9          10          20          19
          11          12          22          21
          12          13          23          22
          13          14          24          23
          14          15          25          24
          15          16          26          25
          16          17          27          26
          17          18          28          27
          18          19          29          28
          19          20          30          29
          21          22          32          31
          22          23          33          32
          23          24          34          33
          24          25          35          34
          25          26          36          35
          26          27          37          36
          27          28          38          37
          28          29          39          38
          29          30          40          39
          31          32          42          41
          32          33          43          42
          33          34          44          43
          34          35          45          44
          35          36          46          45
          36          37          47          46
          37          38          48          47
          38          39          49          48
          39          40          50          49
          41          42          52          51
          42          43          53          52
          43          44          54          53
          44          45          55          54
          45          46          56          55
          46          47          57          56
          47          48          58          57
          48          49          59          58
          49          50          60          59
          51          52          62          61
          52          53          63          62
          53          54          64          63
          54          55          65          64
          55          56          66          65
          56          57          67          66
          57          58          68          67
          58          59          69          68
          59          60          70          69
          61          62          72          71
          62          63          73          72
          63          64          74          73
          64          65          75          74
          65          66          76          75
          66          67          77          76
          67          68          78          77
          68          69          79          78
          69          70          80          79
          71          72          82          81
          72          73          83          82
          73          74          84          83
          74          75          85          84
          75          76          86          85
          76          77          87          86
          77          78          88          87
          78          79          89          88
          79          80          90          89
          81          82          92          91
          82          83          93          92
          83          84          94          93
          84          85          95          94
          85          86          96          95
          86          87          97          96
          87          88          98          97
          88          89          99          98
          89          90         100          99
