 VARIABLES="X" "Y" "abs(eta) (m)" "angle(phi) (rad)" "PRE1" "PRE2"
ZONE N=    100 ,E =      81 ,F=FEPOINT,ET=QUADRILATERAL
  -50.00000      -50.00000      1.6001929E-08   1.573895      4.9583438E-11
 -1.6001852E-08
  -50.00000      -38.88889      1.7998676E-08   1.573264      4.4411499E-11
 -1.7998621E-08
  -50.00000      -27.77778      4.0613299E-09   1.580526      3.9516532E-11
 -4.0611376E-09
  -50.00000      -16.66667      1.0477009E-08   1.574087      3.4472612E-11
 -1.0476952E-08
  -50.00000      -5.555557      6.6692065E-09   1.575234      2.9596738E-11
 -6.6691408E-09
  -50.00000       5.555557      1.4464303E-09  -1.587744      2.4512233E-11
  1.4462226E-09
  -50.00000       16.66666      5.4487788E-09  -1.574328      1.9243137E-11
  5.4487446E-09
  -50.00000       27.77778      6.3637978E-10   1.593679      1.4561054E-11
 -6.3621319E-10
  -50.00000       38.88889      1.3023672E-08  -1.571545      9.7557865E-12
  1.3023668E-08
  -50.00000       50.00000      1.1088408E-08  -1.571181      4.2687889E-12
  1.1088407E-08
  -38.88889      -50.00000      2.2393117E-08   1.572997      4.9273797E-11
 -2.2393062E-08
  -38.88889      -38.88889      1.2401816E-08   1.574389      4.4558478E-11
 -1.2401737E-08
  -38.88889      -27.77778      3.1026136E-08   1.572065      3.9377258E-11
 -3.1026111E-08
  -38.88889      -16.66667      3.2471764E-08   1.571861      3.4558474E-11
 -3.2471746E-08
  -38.88889      -5.555557      9.9341264E-09   1.573756      2.9402099E-11
 -9.9340829E-09
  -38.88889       5.555557      4.3960027E-09  -1.576327      2.4311806E-11
  4.3959356E-09
  -38.88889       16.66666      2.6844013E-08  -1.571528      1.9631151E-11
  2.6844006E-08
  -38.88889       27.77778      2.5783487E-08  -1.571366      1.4680489E-11
  2.5783484E-08
  -38.88889       38.88889      7.5951645E-09  -1.572042      9.4638169E-12
  7.5951583E-09
  -38.88889       50.00000      1.7493527E-08  -1.571036      4.1894795E-12
  1.7493527E-08
  -27.77778      -50.00000      5.4216009E-09   1.579988      4.9835063E-11
 -5.4213718E-09
  -27.77778      -38.88889      4.2298261E-08   1.571848      4.4495060E-11
 -4.2298236E-08
  -27.77778      -27.77778      3.8403034E-08   1.571819      3.9285165E-11
 -3.8403012E-08
  -27.77778      -16.66667      5.9910150E-08   1.571370      3.4350207E-11
 -5.9910143E-08
  -27.77778      -5.555557      4.7269452E-08   1.571421      2.9529677E-11
 -4.7269442E-08
  -27.77778       5.555557      3.9815770E-08  -1.571407      2.4309875E-11
  3.9815763E-08
  -27.77778       16.66666      5.4004417E-08  -1.571157      1.9458282E-11
  5.4004413E-08
  -27.77778       27.77778      3.3037143E-08  -1.571233      1.4427331E-11
  3.3037139E-08
  -27.77778       38.88889      3.7249833E-08  -1.571035      8.8923001E-12
  3.7249833E-08
  -27.77778       50.00000      7.4876977E-10  -1.576949      4.6070461E-12
  7.4875561E-10
  -16.66667      -50.00000      2.6274034E-08   1.572679      4.9466271E-11
 -2.6273987E-08
  -16.66667      -38.88889      7.1676141E-08   1.571418      4.4529599E-11
 -7.1676126E-08
  -16.66667      -27.77778      9.7544657E-08   1.571202      3.9524252E-11
 -9.7544650E-08
  -16.66667      -16.66667      2.7408126E-08  -1.572053      3.4455432E-11
  2.7408104E-08
  -16.66667      -5.555557      2.5987327E-07   1.570909      2.9321094E-11
 -2.5987327E-07
  -16.66667       5.555557      2.4802233E-07  -1.570894      2.4229932E-11
  2.4802233E-07
  -16.66667       16.66666      3.2877839E-08   1.571379      1.9172068E-11
 -3.2877832E-08
  -16.66667       27.77778      9.2335313E-08  -1.570951      1.4258766E-11
  9.2335313E-08
  -16.66667       38.88889      6.6728262E-08  -1.570941      9.6777491E-12
  6.6728262E-08
  -16.66667       50.00000      2.1514003E-08  -1.570986      4.0792508E-12
  2.1514003E-08
  -5.555557      -50.00000      3.8855088E-08   1.572065      4.9309577E-11
 -3.8855056E-08
  -5.555557      -38.88889      5.2346476E-08   1.571648      4.4577130E-11
 -5.2346458E-08
  -5.555557      -27.77778      2.2007853E-07   1.570975      3.9248167E-11
 -2.2007853E-07
  -5.555557      -16.66667      7.6477721E-07   1.570842      3.4587007E-11
 -7.6477721E-07
  -5.555557      -5.555557      3.3676663E-06   1.570805      2.9056901E-11
 -3.3676663E-06
  -5.555557       5.555557      3.3588708E-06  -1.570804      2.4229943E-11
  3.3588708E-06
  -5.555557       16.66666      7.5919473E-07  -1.570822      1.9477753E-11
  7.5919473E-07
  -5.555557       27.77778      2.1542149E-07  -1.570863      1.4421884E-11
  2.1542149E-07
  -5.555557       38.88889      4.7435879E-08  -1.570996      9.4822197E-12
  4.7435879E-08
  -5.555557       50.00000      3.4183326E-08  -1.570916      4.0876547E-12
  3.4183326E-08
   5.555557      -50.00000      3.8786371E-08   1.572072      4.9484857E-11
 -3.8786339E-08
   5.555557      -38.88889      5.2142205E-08   1.571647      4.4354052E-11
 -5.2142187E-08
   5.555557      -27.77778      2.1941055E-07   1.570977      3.9589158E-11
 -2.1941055E-07
   5.555557      -16.66667      7.6197023E-07   1.570842      3.4514551E-11
 -7.6197023E-07
   5.555557      -5.555557      3.3608583E-06   1.570805      2.8871501E-11
 -3.3608583E-06
   5.555557       5.555557      3.3732961E-06  -1.570804      2.4291128E-11
  3.3732961E-06
   5.555557       16.66666      7.6228474E-07  -1.570822      1.9344212E-11
  7.6228474E-07
   5.555557       27.77778      2.1611801E-07  -1.570863      1.4403657E-11
  2.1611801E-07
   5.555557       38.88889      4.7553829E-08  -1.570990      9.2269950E-12
  4.7553829E-08
   5.555557       50.00000      3.4250235E-08  -1.570925      4.3892693E-12
  3.4250235E-08
   16.66666      -50.00000      2.6146900E-08   1.572675      4.9124739E-11
 -2.6146854E-08
   16.66666      -38.88889      7.1187415E-08   1.571419      4.4311478E-11
 -7.1187401E-08
   16.66666      -27.77778      9.6579384E-08   1.571205      3.9471558E-11
 -9.6579377E-08
   16.66666      -16.66667      2.9213435E-08  -1.571982      3.4644641E-11
  2.9213414E-08
   16.66666      -5.555557      2.5116364E-07   1.570914      2.9593186E-11
 -2.5116364E-07
   16.66666       5.555557      2.5700953E-07  -1.570891      2.4204781E-11
  2.5700953E-07
   16.66666       16.66666      3.0718290E-08   1.571420      1.9165740E-11
 -3.0718283E-08
   16.66666       27.77778      9.3363866E-08  -1.570949      1.4296161E-11
  9.3363866E-08
   16.66666       38.88889      6.7233358E-08  -1.570935      9.3419682E-12
  6.7233358E-08
   16.66666       50.00000      2.1653529E-08  -1.570999      4.3901311E-12
  2.1653529E-08
   27.77778      -50.00000      5.4014198E-09   1.579912      4.9238273E-11
 -5.4011955E-09
   27.77778      -38.88889      4.1822162E-08   1.571863      4.4604962E-11
 -4.1822137E-08
   27.77778      -27.77778      3.7411091E-08   1.571849      3.9379975E-11
 -3.7411070E-08
   27.77778      -16.66667      5.8284741E-08   1.571393      3.4799899E-11
 -5.8284730E-08
   27.77778      -5.555557      4.3889887E-08   1.571467      2.9414672E-11
 -4.3889877E-08
   27.77778       5.555557      4.3236330E-08  -1.571352      2.4015864E-11
  4.3236323E-08
   27.77778       16.66666      5.5691114E-08  -1.571147      1.9555406E-11
  5.5691110E-08
   27.77778       27.77778      3.3637072E-08  -1.571227      1.4472016E-11
  3.3637068E-08
   27.77778       38.88889      3.7729574E-08  -1.571040      9.1907567E-12
  3.7729574E-08
   27.77778       50.00000      7.7670131E-10  -1.576236      4.2252352E-12
  7.7668982E-10
   38.88889      -50.00000      2.2147400E-08   1.573037      4.9618663E-11
 -2.2147345E-08
   38.88889      -38.88889      1.2250941E-08   1.574418      4.4365320E-11
 -1.2250861E-08
   38.88889      -27.77778      3.0362127E-08   1.572092      3.9335896E-11
 -3.0362102E-08
   38.88889      -16.66667      3.1309231E-08   1.571892      3.4321265E-11
 -3.1309213E-08
   38.88889      -5.555557      8.7337249E-09   1.574143      2.9230108E-11
 -8.7336760E-09
   38.88889       5.555557      5.4414526E-09  -1.575232      2.4137194E-11
  5.4413989E-09
   38.88889       16.66666      2.8018830E-08  -1.571497      1.9621971E-11
  2.8018823E-08
   38.88889       27.77778      2.6462100E-08  -1.571336      1.4269146E-11
  2.6462097E-08
   38.88889       38.88889      7.7560314E-09  -1.571992      9.2709625E-12
  7.7560260E-09
   38.88889       50.00000      1.7739858E-08  -1.571021      3.9934648E-12
  1.7739858E-08
   50.00000      -50.00000      1.5798603E-08   1.573909      4.9179088E-11
 -1.5798527E-08
   50.00000      -38.88889      1.7679435E-08   1.573292      4.4130002E-11
 -1.7679380E-08
   50.00000      -27.77778      4.0251567E-09   1.580510      3.9100292E-11
 -4.0249666E-09
   50.00000      -16.66667      1.0086528E-08   1.574202      3.4347560E-11
 -1.0086469E-08
   50.00000      -5.555557      6.0628307E-09   1.575622      2.9256993E-11
 -6.0627601E-09
   50.00000       5.555557      2.0582445E-09  -1.582638      2.4372695E-11
  2.0581001E-09
   50.00000       16.66666      5.8496776E-09  -1.574160      1.9674075E-11
  5.8496443E-09
   50.00000       27.77778      5.9351046E-10   1.595108      1.4427875E-11
 -5.9333505E-10
   50.00000       38.88889      1.3343118E-08  -1.571500      9.3876695E-12
  1.3343114E-08
   50.00000       50.00000      1.1300443E-08  -1.571178      4.3172978E-12
  1.1300442E-08
           1           2          12          11
           2           3          13          12
           3           4          14          13
           4           5          15          14
           5           6          16          15
           6           7          17          16
           7           8          18          17
           8           9          19          18
           9          10          20          19
          11          12          22          21
          12          13          23          22
          13          14          24          23
          14          15          25          24
          15          16          26          25
          16          17          27          26
          17          18          28          27
          18          19          29          28
          19          20          30          29
          21          22          32          31
          22          23          33          32
          23          24          34          33
          24          25          35          34
          25          26          36          35
          26          27          37          36
          27          28          38          37
          28          29          39          38
          29          30          40          39
          31          32          42          41
          32          33          43          42
          33          34          44          43
          34          35          45          44
          35          36          46          45
          36          37          47          46
          37          38          48          47
          38          39          49          48
          39          40          50          49
          41          42          52          51
          42          43          53          52
          43          44          54          53
          44          45          55          54
          45          46          56          55
          46          47          57          56
          47          48          58          57
          48          49          59          58
          49          50          60          59
          51          52          62          61
          52          53          63          62
          53          54          64          63
          54          55          65          64
          55          56          66          65
          56          57          67          66
          57          58          68          67
          58          59          69          68
          59          60          70          69
          61          62          72          71
          62          63          73          72
          63          64          74          73
          64          65          75          74
          65          66          76          75
          66          67          77          76
          67          68          78          77
          68          69          79          78
          69          70          80          79
          71          72          82          81
          72          73          83          82
          73          74          84          83
          74          75          85          84
          75          76          86          85
          76          77          87          86
          77          78          88          87
          78          79          89          88
          79          80          90          89
          81          82          92          91
          82          83          93          92
          83          84          94          93
          84          85          95          94
          85          86          96          95
          86          87          97          96
          87          88          98          97
          88          89          99          98
          89          90         100          99
