 VARIABLES="X" "Y" "abs(eta) (m)" "angle(phi) (rad)" "PRE1" "PRE2"
ZONE N=    100 ,E =      81 ,F=FEPOINT,ET=QUADRILATERAL
  -50.00000      -50.00000      1.3894952E-03  -2.898285      1.3485695E-03
  3.3474967E-04
  -50.00000      -38.88889      1.4424154E-03   2.907421      1.4030475E-03
 -3.3469379E-04
  -50.00000      -27.77778      1.4286296E-03   2.486881      1.1332226E-03
 -8.6993631E-04
  -50.00000      -16.66667      1.3947120E-03   2.156446      7.7091501E-04
 -1.1622872E-03
  -50.00000      -5.555557      1.3722786E-03   1.968035      5.3089880E-04
 -1.2654228E-03
  -50.00000       5.555557      1.3722759E-03   1.968013      5.3086982E-04
 -1.2654321E-03
  -50.00000       16.66666      1.3947049E-03   2.156386      7.7084085E-04
 -1.1623279E-03
  -50.00000       27.77778      1.4286229E-03   2.486797      1.1331441E-03
 -8.7002746E-04
  -50.00000       38.88889      1.4424186E-03   2.907319      1.4030164E-03
 -3.3483782E-04
  -50.00000       50.00000      1.3895191E-03  -2.898397      1.3486302E-03
  3.3460429E-04
  -38.88889      -50.00000      1.4396688E-03   2.907395      1.4003672E-03
 -3.3409288E-04
  -38.88889      -38.88889      1.4105851E-03   2.326798      9.6768670E-04
 -1.0263200E-03
  -38.88889      -27.77778      1.3442398E-03   1.763878      2.5793785E-04
 -1.3192607E-03
  -38.88889      -16.66667      1.3041566E-03   1.282620     -3.7064703E-04
 -1.2503781E-03
  -38.88889      -5.555557      1.2995575E-03  0.9987094     -7.0356467E-04
 -1.0926328E-03
  -38.88889       5.555557      1.2995575E-03  0.9986746     -7.0360268E-04
 -1.0926083E-03
  -38.88889       16.66666      1.3041507E-03   1.282528     -3.7075969E-04
 -1.2503384E-03
  -38.88889       27.77778      1.3442242E-03   1.763754      2.5777175E-04
 -1.3192772E-03
  -38.88889       38.88889      1.4105703E-03   2.326668      9.6754293E-04
 -1.0264353E-03
  -38.88889       50.00000      1.4396734E-03   2.907264      1.4003278E-03
 -3.3427757E-04
  -27.77778      -50.00000      1.4223033E-03   2.487176      1.1284596E-03
 -8.6575147E-04
  -27.77778      -38.88889      1.3398862E-03   1.764149      2.5745944E-04
 -1.3149182E-03
  -27.77778      -27.77778      1.2937249E-03  0.9986518     -7.0046959E-04
 -1.0876886E-03
  -27.77778      -16.66667      1.3596689E-03  0.3232539     -1.2892473E-03
 -4.3190375E-04
  -27.77778      -5.555557      1.4631393E-03 -7.7738017E-02 -1.4587205E-03
  1.1362703E-04
  -27.77778       5.555557      1.4631569E-03 -7.7788539E-02 -1.4587323E-03
  1.1370209E-04
  -27.77778       16.66666      1.3596934E-03  0.3231204     -1.2893282E-03
 -4.3173941E-04
  -27.77778       27.77778      1.2937238E-03  0.9984774     -7.0065871E-04
 -1.0875656E-03
  -27.77778       38.88889      1.3398640E-03   1.763976      2.5722748E-04
 -1.3149409E-03
  -27.77778       50.00000      1.4222899E-03   2.487023      1.1283169E-03
 -8.6591538E-04
  -16.66667      -50.00000      1.3837838E-03   2.157190      7.6573167E-04
 -1.1526111E-03
  -16.66667      -38.88889      1.2938741E-03   1.282872     -3.6741147E-04
 -1.2406124E-03
  -16.66667      -27.77778      1.3520845E-03  0.3223453     -1.2824454E-03
 -4.2832937E-04
  -16.66667      -16.66667      1.6415309E-03 -0.5371634     -1.4103436E-03
  8.3997298E-04
  -16.66667      -5.555557      2.0001535E-03  -1.096710     -9.1312209E-04
  1.7795566E-03
  -16.66667       5.555557      2.0002311E-03  -1.096789     -9.1301714E-04
  1.7796978E-03
  -16.66667       16.66666      1.6416335E-03 -0.5373437     -1.4102802E-03
  8.4027968E-04
  -16.66667       27.77778      1.3521240E-03  0.3221225     -1.2825783E-03
 -4.2805629E-04
  -16.66667       38.88889      1.2938589E-03   1.282660     -3.6767108E-04
 -1.2405196E-03
  -16.66667       50.00000      1.3837602E-03   2.157010      7.6551095E-04
 -1.1527295E-03
  -5.555557      -50.00000      1.3566136E-03   1.969108      5.2617927E-04
 -1.2504143E-03
  -5.555557      -38.88889      1.2820549E-03  0.9984285     -6.9439173E-04
 -1.0777222E-03
  -5.555557      -27.77778      1.4450034E-03 -8.0915406E-02 -1.4402756E-03
  1.1679550E-04
  -5.555557      -16.66667      1.9820211E-03  -1.100624     -8.9793408E-04
  1.7669527E-03
  -5.555557      -5.555557      3.3227615E-03  -2.037736      1.4957609E-03
  2.9670598E-03
  -5.555557       5.555557      3.3232991E-03  -2.037905      1.4965044E-03
  2.9672869E-03
  -5.555557       16.66666      1.9822505E-03  -1.100862     -8.9761731E-04
  1.7673711E-03
  -5.555557       27.77778      1.4450845E-03 -8.1170574E-02 -1.4403265E-03
  1.1716957E-04
  -5.555557       38.88889      1.2820535E-03  0.9981838     -6.9465459E-04
 -1.0775510E-03
  -5.555557       50.00000      1.3565867E-03   1.968911      5.2592304E-04
 -1.2504929E-03
   5.555557      -50.00000      1.3526920E-03   1.969357      5.2496977E-04
 -1.2466685E-03
   5.555557      -38.88889      1.2762175E-03  0.9982976     -6.9137040E-04
 -1.0727246E-03
   5.555557      -27.77778      1.4359547E-03 -8.2590930E-02 -1.4310600E-03
  1.1846206E-04
   5.555557      -16.66667      1.9639891E-03  -1.104702     -8.8261842E-04
  1.7544908E-03
   5.555557      -5.555557      3.2441332E-03  -2.056875      1.5155367E-03
  2.8683704E-03
   5.555557       5.555557      3.2447099E-03  -2.057042      1.5162859E-03
  2.8686267E-03
   5.555557       16.66666      1.9642126E-03  -1.104940     -8.8230061E-04
  1.7549009E-03
   5.555557       27.77778      1.4360347E-03 -8.2846940E-02 -1.4311093E-03
  1.1883503E-04
   5.555557       38.88889      1.2762153E-03  0.9980528     -6.9163181E-04
 -1.0725535E-03
   5.555557       50.00000      1.3526652E-03   1.969161      5.2471476E-04
 -1.2467469E-03
   16.66666      -50.00000      1.3728406E-03   2.157880      7.6046487E-04
 -1.1429718E-03
   16.66666      -38.88889      1.2784335E-03   1.283165     -3.6266758E-04
 -1.2259138E-03
   16.66666      -27.77778      1.3293526E-03  0.3194031     -1.2621180E-03
 -4.1741668E-04
   16.66666      -16.66667      1.6066306E-03 -0.5452688     -1.3736497E-03
  8.3327567E-04
   16.66666      -5.555557      1.9460518E-03  -1.108944     -8.6717482E-04
  1.7421612E-03
   16.66666       5.555557      1.9461246E-03  -1.109023     -8.6706912E-04
  1.7422951E-03
   16.66666       16.66666      1.6067293E-03 -0.5454506     -1.3735826E-03
  8.3357655E-04
   16.66666       27.77778      1.3293880E-03  0.3191784     -1.2622454E-03
 -4.1714410E-04
   16.66666       38.88889      1.2784178E-03   1.282953     -3.6292413E-04
 -1.2258213E-03
   16.66666       50.00000      1.3728150E-03   2.157700      7.6024514E-04
 -1.1430872E-03
   27.77778      -50.00000      1.4064683E-03   2.487836      1.1164612E-03
 -8.5537572E-04
   27.77778      -38.88889      1.3180900E-03   1.765409      2.5490049E-04
 -1.2932080E-03
   27.77778      -27.77778      1.2645372E-03  0.9979967     -6.8536261E-04
 -1.0627005E-03
   27.77778      -16.66667      1.3217806E-03  0.3183505     -1.2553651E-03
 -4.1371776E-04
   27.77778      -5.555557      1.4178954E-03 -8.6120546E-02 -1.4126406E-03
  1.2195903E-04
   27.77778       5.555557      1.4179116E-03 -8.6172074E-02 -1.4126505E-03
  1.2203323E-04
   27.77778       16.66666      1.3218010E-03  0.3182149     -1.2554405E-03
 -4.1355393E-04
   27.77778       27.77778      1.2645349E-03  0.9978221     -6.8554690E-04
 -1.0625789E-03
   27.77778       38.88889      1.3180674E-03   1.765235      2.5467173E-04
 -1.2932301E-03
   27.77778       50.00000      1.4064533E-03   2.487684      1.1163197E-03
 -8.5553573E-04
   38.88889      -50.00000      1.4204347E-03   2.907108      1.3815633E-03
 -3.3002679E-04
   38.88889      -38.88889      1.3865373E-03   2.328030      9.5243182E-04
 -1.0076504E-03
   38.88889      -27.77778      1.3137247E-03   1.765641      2.5435563E-04
 -1.2888660E-03
   38.88889      -16.66667      1.2681274E-03   1.283304     -3.5957515E-04
 -1.2160809E-03
   38.88889      -5.555557      1.2586932E-03  0.9977916     -6.8241212E-04
 -1.0576494E-03
   38.88889       5.555557      1.2586931E-03  0.9977564     -6.8244932E-04
 -1.0576252E-03
   38.88889       16.66666      1.2681202E-03   1.283212     -3.5968490E-04
 -1.2160410E-03
   38.88889       27.77778      1.3137086E-03   1.765517      2.5419306E-04
 -1.2888818E-03
   38.88889       38.88889      1.3865222E-03   2.327900      9.5229049E-04
 -1.0077632E-03
   38.88889       50.00000      1.4204391E-03   2.906977      1.3815243E-03
 -3.3020886E-04
   50.00000      -50.00000      1.3692882E-03  -2.900483      1.3296795E-03
  3.2695968E-04
   50.00000      -38.88889      1.4176860E-03   2.907052      1.3788713E-03
 -3.2946561E-04
   50.00000      -27.77778      1.4001265E-03   2.488070      1.1116265E-03
 -8.5125823E-04
   50.00000      -16.66667      1.3618802E-03   2.158518      7.5511669E-04
 -1.1333651E-03
   50.00000      -5.555557      1.3369871E-03   1.970284      5.2001682E-04
 -1.2317131E-03
   50.00000       5.555557      1.3369841E-03   1.970262      5.1998859E-04
 -1.2317217E-03
   50.00000       16.66666      1.3618713E-03   2.158458      7.5504323E-04
 -1.1334033E-03
   50.00000       27.77778      1.4001183E-03   2.487986      1.1115484E-03
 -8.5134694E-04
   50.00000       38.88889      1.4176888E-03   2.906950      1.3788404E-03
 -3.2960670E-04
   50.00000       50.00000      1.3693112E-03  -2.900594      1.3297383E-03
  3.2681710E-04
           1           2          12          11
           2           3          13          12
           3           4          14          13
           4           5          15          14
           5           6          16          15
           6           7          17          16
           7           8          18          17
           8           9          19          18
           9          10          20          19
          11          12          22          21
          12          13          23          22
          13          14          24          23
          14          15          25          24
          15          16          26          25
          16          17          27          26
          17          18          28          27
          18          19          29          28
          19          20          30          29
          21          22          32          31
          22          23          33          32
          23          24          34          33
          24          25          35          34
          25          26          36          35
          26          27          37          36
          27          28          38          37
          28          29          39          38
          29          30          40          39
          31          32          42          41
          32          33          43          42
          33          34          44          43
          34          35          45          44
          35          36          46          45
          36          37          47          46
          37          38          48          47
          38          39          49          48
          39          40          50          49
          41          42          52          51
          42          43          53          52
          43          44          54          53
          44          45          55          54
          45          46          56          55
          46          47          57          56
          47          48          58          57
          48          49          59          58
          49          50          60          59
          51          52          62          61
          52          53          63          62
          53          54          64          63
          54          55          65          64
          55          56          66          65
          56          57          67          66
          57          58          68          67
          58          59          69          68
          59          60          70          69
          61          62          72          71
          62          63          73          72
          63          64          74          73
          64          65          75          74
          65          66          76          75
          66          67          77          76
          67          68          78          77
          68          69          79          78
          69          70          80          79
          71          72          82          81
          72          73          83          82
          73          74          84          83
          74          75          85          84
          75          76          86          85
          76          77          87          86
          77          78          88          87
          78          79          89          88
          79          80          90          89
          81          82          92          91
          82          83          93          92
          83          84          94          93
          84          85          95          94
          85          86          96          95
          86          87          97          96
          87          88          98          97
          88          89          99          98
          89          90         100          99
