 VARIABLES="X" "Y" "abs(eta) (m)" "angle(phi) (rad)" "PRE1" "PRE2"
ZONE N=    100 ,E =      81 ,F=FEPOINT,ET=QUADRILATERAL
  -50.00000      -50.00000      6.3599997E-05 -0.8501148     -4.1969441E-05
  4.7786249E-05
  -50.00000      -38.88889      7.3798372E-05  -1.309135     -1.9090607E-05
  7.1286384E-05
  -50.00000      -27.77778      8.5990563E-05  -1.686442      9.9222489E-06
  8.5416192E-05
  -50.00000      -16.66667      9.7617609E-05  -1.958180      3.6876780E-05
  9.0384186E-05
  -50.00000      -5.555557      1.0777016E-04  -2.097527      5.4177155E-05
  9.3162460E-05
  -50.00000       5.555557      1.0776881E-04  -2.097557      5.4179251E-05
  9.3159681E-05
  -50.00000       16.66666      9.7614487E-05  -1.958265      3.6883241E-05
  9.0378177E-05
  -50.00000       27.77778      8.5987231E-05  -1.686532      9.9295912E-06
  8.5411986E-05
  -50.00000       38.88889      7.3796444E-05  -1.309198     -1.9085588E-05
  7.1285729E-05
  -50.00000       50.00000      6.3600157E-05 -0.8501434     -4.1968178E-05
  4.7787569E-05
  -38.88889      -50.00000      5.7451231E-05  -1.315281     -1.4520469E-05
  5.5585970E-05
  -38.88889      -38.88889      7.2934155E-05  -1.819355      1.7942330E-05
  7.0692746E-05
  -38.88889      -27.77778      8.7893401E-05  -2.258575      5.5796685E-05
  6.7911562E-05
  -38.88889      -16.66667      1.0473408E-04  -2.589823      8.9191337E-05
  5.4901131E-05
  -38.88889      -5.555557      1.1867613E-04  -2.766251      1.1041420E-04
  4.3505504E-05
  -38.88889       5.555557      1.1867541E-04  -2.766346      1.1041766E-04
  4.3494743E-05
  -38.88889       16.66666      1.0473119E-04  -2.590053      8.9201530E-05
  5.4879045E-05
  -38.88889       27.77778      8.7885928E-05  -2.258822      5.5808716E-05
  6.7892004E-05
  -38.88889       38.88889      7.2926603E-05  -1.819516      1.7951874E-05
  7.0682530E-05
  -38.88889       50.00000      5.7448517E-05  -1.315341     -1.4516443E-05
  5.5584216E-05
  -27.77778      -50.00000      4.7859030E-05  -1.700542      6.1921010E-06
  4.7456768E-05
  -27.77778      -38.88889      6.2780629E-05  -2.265254      4.0177656E-05
  4.8240679E-05
  -27.77778      -27.77778      8.4689018E-05  -2.771274      7.8948127E-05
  3.0650001E-05
  -27.77778      -16.66667      1.1039468E-04   3.087496      1.1023319E-04
 -5.9690683E-06
  -27.77778      -5.555557      1.3582304E-04   2.843316      1.2982570E-04
 -3.9914743E-05
  -27.77778       5.555557      1.3583814E-04   2.843062      1.2982999E-04
 -3.9952145E-05
  -27.77778       16.66666      1.1041020E-04   3.086889      1.1024503E-04
 -6.0368520E-06
  -27.77778       27.77778      8.4684943E-05  -2.771878      7.8962810E-05
  3.0600877E-05
  -27.77778       38.88889      6.2768864E-05  -2.265687      4.0191018E-05
  4.8214231E-05
  -27.77778       50.00000      4.7851005E-05  -1.700718      6.1993887E-06
  4.7447720E-05
  -16.66667      -50.00000      3.2623542E-05  -1.988496      1.3234022E-05
  2.9818721E-05
  -16.66667      -38.88889      4.4796834E-05  -2.608805      3.8587739E-05
  2.2753960E-05
  -16.66667      -27.77778      6.6028457E-05   3.077567      6.5893168E-05
 -4.2246179E-06
  -16.66667      -16.66667      1.0837235E-04   2.547495      8.9803179E-05
 -6.0662624E-05
  -16.66667      -5.555557      1.8343466E-04   2.162563      1.0232502E-04
 -1.5224278E-04
  -16.66667       5.555557      1.8358974E-04   2.162019      1.0232866E-04
 -1.5242715E-04
  -16.66667       16.66666      1.0849397E-04   2.546036      8.9815258E-05
 -6.0861817E-05
  -16.66667       27.77778      6.6051914E-05   3.075975      6.5909764E-05
 -4.3310715E-06
  -16.66667       38.88889      4.4785891E-05  -2.609889      3.8602957E-05
  2.2706559E-05
  -16.66667       50.00000      3.2610882E-05  -1.988966      1.3242902E-05
  2.9800925E-05
  -5.555557      -50.00000      1.2081659E-05  -2.206154      7.1700447E-06
  9.7240400E-06
  -5.555557      -38.88889      1.6760279E-05  -2.844269      1.6024904E-05
  4.9101363E-06
  -5.555557      -27.77778      2.6631267E-05   2.790389      2.5005673E-05
 -9.1619195E-06
  -5.555557      -16.66667      6.0203674E-05   2.137727      3.2332107E-05
 -5.0785009E-05
  -5.555557      -5.555557      3.7037852E-04   1.670038      3.6696511E-05
 -3.6855612E-04
  -5.555557       5.555557      3.7131517E-04   1.669798      3.6701003E-05
 -3.6949693E-04
  -5.555557       16.66666      6.0639803E-05   2.133373      3.2343320E-05
 -5.1294202E-05
  -5.555557       27.77778      2.6701549E-05   2.784852      2.5020416E-05
 -9.3247800E-06
  -5.555557       38.88889      1.6755343E-05  -2.847930      1.6038048E-05
  4.8500056E-06
  -5.555557       50.00000      1.2068866E-05  -2.207739      7.1778386E-06
  9.7023785E-06
   5.555557      -50.00000      1.2043014E-05   1.180571     -4.5811253E-06
 -1.1137660E-05
   5.555557      -38.88889      1.7369672E-05  0.4762239     -1.5436988E-05
 -7.9627189E-06
   5.555557      -27.77778      2.8090568E-05 -0.2219844     -2.7401295E-05
  6.1845799E-06
   5.555557      -16.66667      6.3010382E-05 -0.9302363     -3.7657810E-05
  5.0519277E-05
   5.555557      -5.555557      3.7712188E-04  -1.454363     -4.3810538E-05
  3.7456848E-04
   5.555557       5.555557      3.7682767E-04  -1.454280     -4.3807286E-05
  3.7427264E-04
   5.555557       16.66666      6.2632229E-05 -0.9259232     -3.7648049E-05
  5.0054176E-05
   5.555557       27.77778      2.8046881E-05 -0.2167462     -2.7390650E-05
  6.0315688E-06
   5.555557       38.88889      1.7387358E-05  0.4793458     -1.5427748E-05
 -8.0190293E-06
   5.555557       50.00000      1.2060928E-05   1.181495     -4.5776324E-06
 -1.1158462E-05
   16.66666      -50.00000      3.2466472E-05   1.244402     -1.0409711E-05
 -3.0752395E-05
   16.66666      -38.88889      4.5187760E-05  0.5991579     -3.7316542E-05
 -2.5483512E-05
   16.66666      -27.77778      6.7129913E-05 -1.4247230E-02 -6.7123103E-05
  9.5638302E-07
   16.66666      -16.66667      1.1030610E-04 -0.5582832     -9.3557865E-05
  5.8432546E-05
   16.66666      -5.555557      1.8602396E-04 -0.9537008     -1.0764626E-04
  1.5171419E-04
   16.66666       5.555557      1.8590775E-04 -0.9532766     -1.0764333E-04
  1.5157375E-04
   16.66666       16.66666      1.1021519E-04 -0.5570803     -9.3550923E-05
  5.8271897E-05
   16.66666       27.77778      6.7122746E-05 -1.2930336E-02 -6.7117136E-05
  8.6789555E-07
   16.66666       38.88889      4.5207715E-05  0.5999271     -3.7313399E-05
 -2.5523477E-05
   16.66666       50.00000      3.2483360E-05   1.244535     -1.0411047E-05
 -3.0769770E-05
   27.77778      -50.00000      4.7552163E-05   1.504758     -3.1379802E-06
 -4.7448513E-05
   27.77778      -38.88889      6.2856328E-05  0.9231552     -3.7921651E-05
 -5.0128496E-05
   27.77778      -27.77778      8.5307642E-05  0.4062589     -7.8364079E-05
 -3.3711494E-05
   27.77778      -16.66667      1.1149637E-04 -2.3967145E-02 -1.1146435E-04
  2.6719938E-06
   27.77778      -5.555557      1.3725567E-04 -0.2717201     -1.3221985E-04
  3.6837882E-05
   27.77778       5.555557      1.3724761E-04 -0.2715342     -1.3221893E-04
  3.6811147E-05
   27.77778       16.66666      1.1149381E-04 -2.3529023E-02 -1.1146295E-04
  2.6230985E-06
   27.77778       27.77778      8.5320178E-05  0.4066307     -7.8363053E-05
 -3.3745582E-05
   27.77778       38.88889      6.2875006E-05  0.9233260     -3.7924361E-05
 -5.0149869E-05
   27.77778       50.00000      4.7565281E-05   1.504665     -3.1432664E-06
 -4.7461308E-05
   38.88889      -50.00000      5.7062683E-05   1.881792      1.7461576E-05
 -5.4325345E-05
   38.88889      -38.88889      7.2711722E-05   1.363411     -1.4971484E-05
 -7.1153700E-05
   38.88889      -27.77778      8.7976034E-05  0.9164534     -5.3545558E-05
 -6.9804410E-05
   38.88889      -16.66667      1.0513994E-04  0.5803278     -8.7926746E-05
 -5.7648031E-05
   38.88889      -5.555557      1.1930460E-04  0.4012089     -1.0983057E-04
 -4.6592202E-05
   38.88889       5.555557      1.1930770E-04  0.4012600     -1.0983105E-04
 -4.6599038E-05
   38.88889       16.66666      1.0514999E-04  0.5804368     -8.7928856E-05
 -5.7663128E-05
   38.88889       27.77778      8.7989974E-05  0.9165188     -5.3549480E-05
 -6.9818976E-05
   38.88889       38.88889      7.2722803E-05   1.363350     -1.4978086E-05
 -7.1163638E-05
   38.88889       50.00000      5.7069472E-05   1.881602      1.7453338E-05
 -5.4335123E-05
   50.00000      -50.00000      6.3286978E-05   2.344174      4.4209501E-05
 -4.5285338E-05
   50.00000      -38.88889      7.3411669E-05   1.875547      2.2027541E-05
 -7.0028997E-05
   50.00000      -27.77778      8.5691267E-05   1.490471     -6.8757531E-06
 -8.5414969E-05
   50.00000      -16.66667      9.7474644E-05   1.213791     -3.4064502E-05
 -9.1328613E-05
   50.00000      -5.555557      1.0774880E-04   1.071406     -5.1599829E-05
 -9.4589966E-05
   50.00000       5.555557      1.0775103E-04   1.071406     -5.1600895E-05
 -9.4591924E-05
   50.00000       16.66666      9.7481432E-05   1.213778     -3.4068024E-05
 -9.1334543E-05
   50.00000       27.77778      8.5699670E-05   1.490409     -6.8817917E-06
 -8.5422915E-05
   50.00000       38.88889      7.3417556E-05   1.875408      2.2019613E-05
 -7.0037662E-05
   50.00000       50.00000      6.3286541E-05   2.343969      4.4199918E-05
 -4.5294080E-05
           1           2          12          11
           2           3          13          12
           3           4          14          13
           4           5          15          14
           5           6          16          15
           6           7          17          16
           7           8          18          17
           8           9          19          18
           9          10          20          19
          11          12          22          21
          12          13          23          22
          13          14          24          23
          14          15          25          24
          15          16          26          25
          16          17          27          26
          17          18          28          27
          18          19          29          28
          19          20          30          29
          21          22          32          31
          22          23          33          32
          23          24          34          33
          24          25          35          34
          25          26          36          35
          26          27          37          36
          27          28          38          37
          28          29          39          38
          29          30          40          39
          31          32          42          41
          32          33          43          42
          33          34          44          43
          34          35          45          44
          35          36          46          45
          36          37          47          46
          37          38          48          47
          38          39          49          48
          39          40          50          49
          41          42          52          51
          42          43          53          52
          43          44          54          53
          44          45          55          54
          45          46          56          55
          46          47          57          56
          47          48          58          57
          48          49          59          58
          49          50          60          59
          51          52          62          61
          52          53          63          62
          53          54          64          63
          54          55          65          64
          55          56          66          65
          56          57          67          66
          57          58          68          67
          58          59          69          68
          59          60          70          69
          61          62          72          71
          62          63          73          72
          63          64          74          73
          64          65          75          74
          65          66          76          75
          66          67          77          76
          67          68          78          77
          68          69          79          78
          69          70          80          79
          71          72          82          81
          72          73          83          82
          73          74          84          83
          74          75          85          84
          75          76          86          85
          76          77          87          86
          77          78          88          87
          78          79          89          88
          79          80          90          89
          81          82          92          91
          82          83          93          92
          83          84          94          93
          84          85          95          94
          85          86          96          95
          86          87          97          96
          87          88          98          97
          88          89          99          98
          89          90         100          99
