 VARIABLES="X" "Y" "abs(eta) (m)" "angle(phi) (rad)" "PRE1" "PRE2"
ZONE N=    100 ,E =      81 ,F=FEPOINT,ET=QUADRILATERAL
  -50.00000      -50.00000      3.0700539E-04  -1.228604     -1.0301650E-04
  2.8920567E-04
  -50.00000      -38.88889      3.3611644E-04  -1.710876      4.6929341E-05
  3.3282413E-04
  -50.00000      -27.77778      3.8736316E-04  -2.068273      1.8485328E-04
  3.4041077E-04
  -50.00000      -16.66667      4.3636496E-04  -2.295466      2.8926114E-04
  3.2671454E-04
  -50.00000      -5.555557      4.6606088E-04  -2.406736      3.4578310E-04
  3.1248486E-04
  -50.00000       5.555557      4.6606423E-04  -2.406749      3.4578948E-04
  3.1248282E-04
  -50.00000       16.66666      4.3637474E-04  -2.295504      2.8927997E-04
  3.2671090E-04
  -50.00000       27.77778      3.8737516E-04  -2.068338      1.8488115E-04
  3.4040929E-04
  -50.00000       38.88889      3.3612672E-04  -1.710974      4.6963229E-05
  3.3282972E-04
  -50.00000       50.00000      3.0700813E-04  -1.228726     -1.0298219E-04
  2.8922077E-04
  -38.88889      -50.00000      3.3611635E-04  -1.710876      4.6929312E-05
  3.3282404E-04
  -38.88889      -38.88889      4.0959491E-04  -2.182191      2.3511157E-04
  3.3539609E-04
  -38.88889      -27.77778      4.9856200E-04  -2.517097      4.0446251E-04
  2.9150321E-04
  -38.88889      -16.66667      5.7805615E-04  -2.738571      5.3174241E-04
  2.2671337E-04
  -38.88889      -5.555557      6.2517571E-04  -2.854515      5.9959071E-04
  1.7701874E-04
  -38.88889       5.555557      6.2518107E-04  -2.854529      5.9959828E-04
  1.7701213E-04
  -38.88889       16.66666      5.7807157E-04  -2.738610      5.3176528E-04
  2.2669892E-04
  -38.88889       27.77778      4.9858139E-04  -2.517160      4.0449647E-04
  2.9148930E-04
  -38.88889       38.88889      4.0961368E-04  -2.182281      2.3515245E-04
  3.3539036E-04
  -38.88889       50.00000      3.3612992E-04  -1.711001      4.6972840E-05
  3.3283161E-04
  -27.77778      -50.00000      3.8736299E-04  -2.068273      1.8485321E-04
  3.4041060E-04
  -27.77778      -38.88889      4.9856200E-04  -2.517097      4.0446254E-04
  2.9150327E-04
  -27.77778      -27.77778      6.2516989E-04  -2.854502      5.9958274E-04
  1.7702530E-04
  -27.77778      -16.66667      7.4613880E-04  -3.100283      7.4550224E-04
  3.0813622E-05
  -27.77778      -5.555557      8.2797965E-04   3.028829      8.2272105E-04
 -9.3168426E-05
  -27.77778       5.555557      8.2799047E-04   3.028810      8.2273001E-04
 -9.3185510E-05
  -27.77778       16.66666      7.4616366E-04  -3.100331      7.4552855E-04
  3.0779593E-05
  -27.77778       27.77778      6.2519830E-04  -2.854569      5.9962197E-04
  1.7699273E-04
  -27.77778       38.88889      4.9858901E-04  -2.517185      4.0450995E-04
  2.9148365E-04
  -27.77778       50.00000      3.8738461E-04  -2.068389      1.8490330E-04
  3.4040801E-04
  -16.66667      -50.00000      4.3636523E-04  -2.295465      2.8926114E-04
  3.2671486E-04
  -16.66667      -38.88889      5.7805632E-04  -2.738571      5.3174252E-04
  2.2671343E-04
  -16.66667      -27.77778      7.4613874E-04  -3.100283      7.4550218E-04
  3.0813604E-05
  -16.66667      -16.66667      9.3669159E-04   2.878351      9.0442394E-04
 -2.4373848E-04
  -16.66667      -5.555557      1.1477063E-03   2.608699      9.8856585E-04
 -5.8306725E-04
  -16.66667       5.555557      1.1477437E-03   2.608660      9.8857540E-04
 -5.8312452E-04
  -16.66667       16.66666      9.3673717E-04   2.878284      9.0445176E-04
 -2.4381040E-04
  -16.66667       27.77778      7.4617990E-04  -3.100361      7.4554572E-04
  3.0757234E-05
  -16.66667       38.88889      5.7809154E-04  -2.738660      5.3179514E-04
  2.2667983E-04
  -16.66667       50.00000      4.3639410E-04  -2.295580      2.8931760E-04
  3.2670345E-04
  -5.555557      -50.00000      4.6606103E-04  -2.406737      3.4578337E-04
  3.1248477E-04
  -5.555557      -38.88889      6.2517571E-04  -2.854515      5.9959071E-04
  1.7701877E-04
  -5.555557      -27.77778      8.2797988E-04   3.028829      8.2272128E-04
 -9.3168419E-05
  -5.555557      -16.66667      1.1477066E-03   2.608699      9.8856620E-04
 -5.8306713E-04
  -5.555557      -5.555557      1.9706208E-03   2.148690      1.0764737E-03
 -1.6506214E-03
  -5.555557       5.555557      1.9709957E-03   2.148572      1.0764837E-03
 -1.6510623E-03
  -5.555557       16.66666      1.1478192E-03   2.608583      9.8859554E-04
 -5.8323907E-04
  -5.555557       27.77778      8.2803325E-04   3.028732      8.2276535E-04
 -9.3253984E-05
  -5.555557       38.88889      6.2521506E-04  -2.854610      5.9964519E-04
  1.7697312E-04
  -5.555557       50.00000      4.6609237E-04  -2.406849      3.4584166E-04
  3.1246705E-04
   5.555557      -50.00000      4.6606446E-04  -2.406749      3.4578977E-04
  3.1248285E-04
   5.555557      -38.88889      6.2518124E-04  -2.854529      5.9959840E-04
  1.7701222E-04
   5.555557      -27.77778      8.2799076E-04   3.028810      8.2273030E-04
 -9.3185437E-05
   5.555557      -16.66667      1.1477434E-03   2.608660      9.8857528E-04
 -5.8312435E-04
   5.555557      -5.555557      1.9709964E-03   2.148572      1.0764839E-03
 -1.6510630E-03
   5.555557       5.555557      1.9713710E-03   2.148454      1.0764933E-03
 -1.6515041E-03
   5.555557       16.66666      1.1478567E-03   2.608544      9.8860520E-04
 -5.8329641E-04
   5.555557       27.77778      8.2804431E-04   3.028713      8.2277448E-04
 -9.3271061E-05
   5.555557       38.88889      6.2522071E-04  -2.854624      5.9965299E-04
  1.7696664E-04
   5.555557       50.00000      4.6609581E-04  -2.406861      3.4584818E-04
  3.1246495E-04
   16.66666      -50.00000      4.3637466E-04  -2.295504      2.8928000E-04
  3.2671078E-04
   16.66666      -38.88889      5.7807175E-04  -2.738610      5.3176546E-04
  2.2669902E-04
   16.66666      -27.77778      7.4616319E-04  -3.100330      7.4552809E-04
  3.0779629E-05
   16.66666      -16.66667      9.3673723E-04   2.878285      9.0445188E-04
 -2.4381015E-04
   16.66666      -5.555557      1.1478188E-03   2.608583      9.8859519E-04
 -5.8323878E-04
   16.66666       5.555557      1.1478565E-03   2.608544      9.8860508E-04
 -5.8329612E-04
   16.66666       16.66666      9.3678274E-04   2.878219      9.0447970E-04
 -2.4388180E-04
   16.66666       27.77778      7.4620411E-04  -3.100408      7.4557133E-04
  3.0723259E-05
   16.66666       38.88889      5.7810667E-04  -2.738699      5.3181779E-04
  2.2666532E-04
   16.66666       50.00000      4.3640402E-04  -2.295618      2.8933675E-04
  3.2669972E-04
   27.77778      -50.00000      3.8737507E-04  -2.068337      1.8488098E-04
  3.4040926E-04
   27.77778      -38.88889      4.9858144E-04  -2.517160      4.0449656E-04
  2.9148930E-04
   27.77778      -27.77778      6.2519830E-04  -2.854569      5.9962191E-04
  1.7699283E-04
   27.77778      -16.66667      7.4617926E-04  -3.100361      7.4554508E-04
  3.0757208E-05
   27.77778      -5.555557      8.2803372E-04   3.028732      8.2276581E-04
 -9.3253875E-05
   27.77778       5.555557      8.2804414E-04   3.028713      8.2277437E-04
 -9.3270981E-05
   27.77778       16.66666      7.4620394E-04  -3.100408      7.4557116E-04
  3.0723306E-05
   27.77778       27.77778      6.2522624E-04  -2.854637      5.9966068E-04
  1.7696030E-04
   27.77778       38.88889      4.9860822E-04  -2.517247      4.0454368E-04
  2.9146971E-04
   27.77778       50.00000      3.8739649E-04  -2.068454      1.8493095E-04
  3.4040649E-04
   38.88889      -50.00000      3.3612674E-04  -1.710974      4.6963156E-05
  3.3282978E-04
   38.88889      -38.88889      4.0961368E-04  -2.182281      2.3515239E-04
  3.3539042E-04
   38.88889      -27.77778      4.9858907E-04  -2.517184      4.0450995E-04
  2.9148374E-04
   38.88889      -16.66667      5.7809154E-04  -2.738660      5.3179514E-04
  2.2667987E-04
   38.88889      -5.555557      6.2521530E-04  -2.854610      5.9964543E-04
  1.7697325E-04
   38.88889       5.555557      6.2522094E-04  -2.854623      5.9965323E-04
  1.7696686E-04
   38.88889       16.66666      5.7810679E-04  -2.738699      5.3181784E-04
  2.2666542E-04
   38.88889       27.77778      4.9860828E-04  -2.517247      4.0454371E-04
  2.9146971E-04
   38.88889       38.88889      4.0963228E-04  -2.182370      2.3519313E-04
  3.3538454E-04
   38.88889       50.00000      3.3614004E-04  -1.711099      4.7006677E-05
  3.3283705E-04
   50.00000      -50.00000      3.0700804E-04  -1.228726     -1.0298225E-04
  2.8922068E-04
   50.00000      -38.88889      3.3612974E-04  -1.711001      4.6972840E-05
  3.3283143E-04
   50.00000      -27.77778      3.8738461E-04  -2.068389      1.8490323E-04
  3.4040803E-04
   50.00000      -16.66667      4.3639395E-04  -2.295580      2.8931754E-04
  3.2670330E-04
   50.00000      -5.555557      4.6609255E-04  -2.406849      3.4584181E-04
  3.1246713E-04
   50.00000       5.555557      4.6609587E-04  -2.406861      3.4584818E-04
  3.1246504E-04
   50.00000       16.66666      4.3640370E-04  -2.295618      2.8933652E-04
  3.2669952E-04
   50.00000       27.77778      3.8739637E-04  -2.068454      1.8493095E-04
  3.4040638E-04
   50.00000       38.88889      3.3614004E-04  -1.711099      4.7006677E-05
  3.3283705E-04
   50.00000       50.00000      3.0701095E-04  -1.228848     -1.0294802E-04
  2.8923593E-04
           1           2          12          11
           2           3          13          12
           3           4          14          13
           4           5          15          14
           5           6          16          15
           6           7          17          16
           7           8          18          17
           8           9          19          18
           9          10          20          19
          11          12          22          21
          12          13          23          22
          13          14          24          23
          14          15          25          24
          15          16          26          25
          16          17          27          26
          17          18          28          27
          18          19          29          28
          19          20          30          29
          21          22          32          31
          22          23          33          32
          23          24          34          33
          24          25          35          34
          25          26          36          35
          26          27          37          36
          27          28          38          37
          28          29          39          38
          29          30          40          39
          31          32          42          41
          32          33          43          42
          33          34          44          43
          34          35          45          44
          35          36          46          45
          36          37          47          46
          37          38          48          47
          38          39          49          48
          39          40          50          49
          41          42          52          51
          42          43          53          52
          43          44          54          53
          44          45          55          54
          45          46          56          55
          46          47          57          56
          47          48          58          57
          48          49          59          58
          49          50          60          59
          51          52          62          61
          52          53          63          62
          53          54          64          63
          54          55          65          64
          55          56          66          65
          56          57          67          66
          57          58          68          67
          58          59          69          68
          59          60          70          69
          61          62          72          71
          62          63          73          72
          63          64          74          73
          64          65          75          74
          65          66          76          75
          66          67          77          76
          67          68          78          77
          68          69          79          78
          69          70          80          79
          71          72          82          81
          72          73          83          82
          73          74          84          83
          74          75          85          84
          75          76          86          85
          76          77          87          86
          77          78          88          87
          78          79          89          88
          79          80          90          89
          81          82          92          91
          82          83          93          92
          83          84          94          93
          84          85          95          94
          85          86          96          95
          86          87          97          96
          87          88          98          97
          88          89          99          98
          89          90         100          99
