 VARIABLES="X" "Y" "abs(eta) (m)" "angle(phi) (rad)" "PRE1" "PRE2"
ZONE N=    100 ,E =      81 ,F=FEPOINT,ET=QUADRILATERAL
  -50.00000      -50.00000      3.7516100E-05   1.267854     -1.1192170E-05
 -3.5807723E-05
  -50.00000      -38.88889      3.4176410E-05  0.9230027     -2.0623020E-05
 -2.7252852E-05
  -50.00000      -27.77778      2.8398248E-05  0.6350517     -2.2861754E-05
 -1.6846385E-05
  -50.00000      -16.66667      1.9524352E-05  0.4192680     -1.7833292E-05
 -7.9482070E-06
  -50.00000      -5.555557      6.7192082E-06  0.2178705     -6.5603658E-06
 -1.4523631E-06
  -50.00000       5.555557      7.0787128E-06  -2.673938      6.3186562E-06
  3.1910433E-06
  -50.00000       16.66666      1.9821657E-05  -2.637029      1.7351595E-05
  9.5822888E-06
  -50.00000       27.77778      2.8561484E-05  -2.449121      2.1982931E-05
  1.8234834E-05
  -50.00000       38.88889      3.4181481E-05  -2.171387      1.9316967E-05
  2.8199796E-05
  -50.00000       50.00000      3.7375350E-05  -1.829997      9.5796086E-06
  3.6126832E-05
  -38.88889      -50.00000      4.3936896E-05  0.9282775     -2.6327600E-05
 -3.5175395E-05
  -38.88889      -38.88889      4.1589483E-05  0.5387580     -3.5698191E-05
 -2.1338330E-05
  -38.88889      -27.77778      3.6242971E-05  0.2007483     -3.5515128E-05
 -7.2269449E-06
  -38.88889      -16.66667      2.5907386E-05 -6.3946776E-02 -2.5854433E-05
  1.6555649E-06
  -38.88889      -5.555557      9.6487838E-06 -0.2516079     -9.3449762E-06
  2.4021765E-06
  -38.88889       5.555557      1.0375083E-05   3.086144      1.0359137E-05
 -5.7499005E-07
  -38.88889       16.66666      2.6509486E-05  -3.133523      2.6508622E-05
  2.1391814E-07
  -38.88889       27.77778      3.6673853E-05  -2.892696      3.5543741E-05
  9.0340436E-06
  -38.88889       38.88889      4.1808587E-05  -2.563279      3.5009914E-05
  2.2853095E-05
  -38.88889       50.00000      4.3942218E-05  -2.176669      2.5024212E-05
  3.6120731E-05
  -27.77778      -50.00000      5.1167019E-05  0.6479355     -4.0797077E-05
 -3.0881423E-05
  -27.77778      -38.88889      5.0817762E-05  0.2077784     -4.9724753E-05
 -1.0483021E-05
  -27.77778      -27.77778      4.9459541E-05 -0.1695809     -4.8750073E-05
  8.3472496E-06
  -27.77778      -16.66667      3.8974587E-05 -0.4910033     -3.4370139E-05
  1.8376944E-05
  -27.77778      -5.555557      1.5770787E-05 -0.7695654     -1.1326786E-05
  1.0973679E-05
  -27.77778       5.555557      1.6770819E-05   2.522154      1.3654878E-05
 -9.7367692E-06
  -27.77778       16.66666      3.9956958E-05   2.705899      3.6224083E-05
 -1.6863405E-05
  -27.77778       27.77778      5.0198563E-05   3.010953      4.9770813E-05
 -6.5392660E-06
  -27.77778       38.88889      5.1252086E-05  -2.899614      4.9758888E-05
  1.2281259E-05
  -27.77778       50.00000      5.1332478E-05  -2.461938      3.9925872E-05
  3.2263724E-05
  -16.66667      -50.00000      5.8820657E-05  0.4481037     -5.3013311E-05
 -2.5484476E-05
  -16.66667      -38.88889      6.0813909E-05 -4.2812493E-02 -6.0758186E-05
  2.6027999E-06
  -16.66667      -27.77778      6.5258326E-05 -0.4795105     -5.7898549E-05
  3.0106603E-05
  -16.66667      -16.66667      6.5820248E-05 -0.9241594     -3.9657072E-05
  5.2532097E-05
  -16.66667      -5.555557      3.5213296E-05  -1.186240     -1.3210180E-05
  3.2641496E-05
  -16.66667       5.555557      3.6759971E-05   2.040029      1.6622926E-05
 -3.2786793E-05
  -16.66667       16.66666      6.7072237E-05   2.257231      4.2509244E-05
 -5.1881103E-05
  -16.66667       27.77778      6.6263543E-05   2.694807      5.9759135E-05
 -2.8630448E-05
  -16.66667       38.88889      6.1429346E-05   3.129155      6.1424595E-05
 -7.6402966E-07
  -16.66667       50.00000      5.9123162E-05  -2.665363      5.2544514E-05
  2.7103917E-05
  -5.555557      -50.00000      6.1428393E-05  0.3322124     -5.8069680E-05
 -2.0033967E-05
  -5.555557      -38.88889      6.9377616E-05 -0.1637471     -6.8449575E-05
  1.1309684E-05
  -5.555557      -27.77778      8.0587830E-05 -0.7067425     -6.1285529E-05
  5.2330513E-05
  -5.555557      -16.66667      1.0695960E-04  -1.156688     -4.3037726E-05
  9.7918892E-05
  -5.555557      -5.555557      2.0928326E-04  -1.503491     -1.4075335E-05
  2.0880940E-04
  -5.555557       5.555557      2.1312805E-04   1.655818      1.8098774E-05
 -2.1235818E-04
  -5.555557       16.66666      1.0882260E-04   2.011883      4.6458827E-05
 -9.8406992E-05
  -5.555557       27.77778      8.1692247E-05   2.463673      6.3628366E-05
 -5.1235285E-05
  -5.555557       38.88889      7.0133014E-05   3.005194      6.9481626E-05
 -9.5363985E-06
  -5.555557       50.00000      6.1798884E-05  -2.782004      5.7846337E-05
  2.1746348E-05
   5.555557      -50.00000      6.1428240E-05  0.3322512     -5.8068756E-05
 -2.0036166E-05
   5.555557      -38.88889      6.9374793E-05 -0.1636666     -6.8447705E-05
  1.1303714E-05
   5.555557      -27.77778      8.0567013E-05 -0.7064946     -6.1282663E-05
  5.2301802E-05
   5.555557      -16.66667      1.0684538E-04  -1.156239     -4.3035725E-05
  9.7794997E-05
   5.555557      -5.555557      2.0842107E-04  -1.503228     -1.4071957E-05
  2.0794549E-04
   5.555557       5.555557      2.1368280E-04   1.655617      1.8103105E-05
 -2.1291457E-04
   5.555557       16.66666      1.0897317E-04   2.011276      4.6463283E-05
 -9.8571370E-05
   5.555557       27.77778      8.1717058E-05   2.463366      6.3631982E-05
 -5.1270345E-05
   5.555557       38.88889      7.0137205E-05   3.005074      6.9484631E-05
 -9.5453488E-06
   5.555557       50.00000      6.1799677E-05  -2.782069      5.7848491E-05
  2.1742862E-05
   16.66666      -50.00000      5.8819736E-05  0.4481797     -5.3010546E-05
 -2.5488105E-05
   16.66666      -38.88889      6.0808514E-05 -4.2554844E-02 -6.0753464E-05
  2.5869160E-06
   16.66666      -27.77778      6.5232678E-05 -0.4790195     -5.7890560E-05
  3.0066343E-05
   16.66666      -16.66667      6.5689492E-05 -0.9228490     -3.9646959E-05
  5.2375832E-05
   16.66666      -5.555557      3.4827433E-05  -1.182112     -1.3198602E-05
  3.2229600E-05
   16.66666       5.555557      3.7168800E-05   2.034757      1.6632797E-05
 -3.3239579E-05
   16.66666       16.66666      6.7221590E-05   2.255635      4.2520904E-05
 -5.2064523E-05
   16.66666       27.77778      6.6295084E-05   2.694152      5.9768834E-05
 -2.8683184E-05
   16.66666       38.88889      6.1438011E-05   3.128801      6.1432984E-05
 -7.8584861E-07
   16.66666       50.00000      5.9125214E-05  -2.665514      5.2550426E-05
  2.7096929E-05
   27.77778      -50.00000      5.1166720E-05  0.6480299     -4.0793922E-05
 -3.0885094E-05
   27.77778      -38.88889      5.0814877E-05  0.2080884     -4.9718677E-05
 -1.0497840E-05
   27.77778      -27.77778      4.9444017E-05 -0.1689687     -4.8739872E-05
  8.3147925E-06
   27.77778      -16.66667      3.8929615E-05 -0.4895442     -3.4357225E-05
  1.8305627E-05
   27.77778      -5.555557      1.5652240E-05 -0.7631019     -1.1311804E-05
  1.0818305E-05
   27.77778       5.555557      1.6878557E-05   2.514938      1.3671528E-05
 -9.8982327E-06
   27.77778       16.66666      4.0006373E-05   2.704169      3.6239606E-05
 -1.6947004E-05
   27.77778       27.77778      5.0217761E-05   3.010164      4.9784670E-05
 -6.5810482E-06
   27.77778       38.88889      5.1258416E-05  -2.900058      4.9770486E-05
  1.2260662E-05
   27.77778       50.00000      5.1334460E-05  -2.462140      3.9933922E-05
  3.2256918E-05
   38.88889      -50.00000      4.3936587E-05  0.9283195     -2.6325937E-05
 -3.5176250E-05
   38.88889      -38.88889      4.1588792E-05  0.5389921     -3.5692599E-05
 -2.1346330E-05
   38.88889      -27.77778      3.6238012E-05  0.2013872     -3.5505644E-05
 -7.2486419E-06
   38.88889      -16.66667      2.5891191E-05 -6.2385898E-02 -2.5840824E-05
  1.6141977E-06
   38.88889      -5.555557      9.6202311E-06 -0.2469398     -9.3284016E-06
  2.3515472E-06
   38.88889       5.555557      1.0395643E-05   3.081123      1.0376642E-05
 -6.2824068E-07
   38.88889       16.66666      2.6526048E-05  -3.135294      2.6525522E-05
  1.6708394E-07
   38.88889       27.77778      3.6681769E-05  -2.893534      3.5558973E-05
  9.0062031E-06
   38.88889       38.88889      4.1811749E-05  -2.563688      3.5021894E-05
  2.2840515E-05
   38.88889       50.00000      4.3944328E-05  -2.176867      2.5032561E-05
  3.6117515E-05
   50.00000      -50.00000      3.7514892E-05   1.267831     -1.1192633E-05
 -3.5806315E-05
   50.00000      -38.88889      3.4175922E-05  0.9231037     -2.0619971E-05
 -2.7254551E-05
   50.00000      -27.77778      2.8396980E-05  0.6354232     -2.2854474E-05
 -1.6854123E-05
   50.00000      -16.66667      1.9519550E-05  0.4201523     -1.7821872E-05
 -7.9620158E-06
   50.00000      -5.555557      6.7107208E-06  0.2215294     -6.5467279E-06
 -1.4744921E-06
   50.00000       5.555557      7.0812553E-06  -2.677915      6.3335715E-06
  3.1670249E-06
   50.00000       16.66666      1.9826084E-05  -2.638124      1.7365946E-05
  9.5654323E-06
   50.00000       27.77778      2.8564165E-05  -2.449698      2.1995509E-05
  1.8223862E-05
   50.00000       38.88889      3.4183569E-05  -2.171674      1.9326248E-05
  2.8195969E-05
   50.00000       50.00000      3.7378144E-05  -1.830131      9.5851483E-06
  3.6128251E-05
           1           2          12          11
           2           3          13          12
           3           4          14          13
           4           5          15          14
           5           6          16          15
           6           7          17          16
           7           8          18          17
           8           9          19          18
           9          10          20          19
          11          12          22          21
          12          13          23          22
          13          14          24          23
          14          15          25          24
          15          16          26          25
          16          17          27          26
          17          18          28          27
          18          19          29          28
          19          20          30          29
          21          22          32          31
          22          23          33          32
          23          24          34          33
          24          25          35          34
          25          26          36          35
          26          27          37          36
          27          28          38          37
          28          29          39          38
          29          30          40          39
          31          32          42          41
          32          33          43          42
          33          34          44          43
          34          35          45          44
          35          36          46          45
          36          37          47          46
          37          38          48          47
          38          39          49          48
          39          40          50          49
          41          42          52          51
          42          43          53          52
          43          44          54          53
          44          45          55          54
          45          46          56          55
          46          47          57          56
          47          48          58          57
          48          49          59          58
          49          50          60          59
          51          52          62          61
          52          53          63          62
          53          54          64          63
          54          55          65          64
          55          56          66          65
          56          57          67          66
          57          58          68          67
          58          59          69          68
          59          60          70          69
          61          62          72          71
          62          63          73          72
          63          64          74          73
          64          65          75          74
          65          66          76          75
          66          67          77          76
          67          68          78          77
          68          69          79          78
          69          70          80          79
          71          72          82          81
          72          73          83          82
          73          74          84          83
          74          75          85          84
          75          76          86          85
          76          77          87          86
          77          78          88          87
          78          79          89          88
          79          80          90          89
          81          82          92          91
          82          83          93          92
          83          84          94          93
          84          85          95          94
          85          86          96          95
          86          87          97          96
          87          88          98          97
          88          89          99          98
          89          90         100          99
