 VARIABLES="X" "Y" "abs(eta) (m)" "angle(phi) (rad)" "PRE1" "PRE2"
ZONE N=    100 ,E =      81 ,F=FEPOINT,ET=QUADRILATERAL
  -50.00000      -50.00000      2.8481301E-05  -2.851744      2.7293263E-05
  8.1401686E-06
  -50.00000      -38.88889      2.9454917E-05  -2.860270      2.8297016E-05
  8.1774706E-06
  -50.00000      -27.77778      2.9786279E-05  -2.862836      2.8636476E-05
  8.1960188E-06
  -50.00000      -16.66667      3.0260422E-05  -2.866400      2.9121806E-05
  8.2227452E-06
  -50.00000      -5.555557      3.0678708E-05  -2.869759      2.9552191E-05
  8.2371807E-06
  -50.00000       5.555557      3.0678759E-05  -2.869759      2.9552239E-05
  8.2372035E-06
  -50.00000       16.66666      3.0260555E-05  -2.866399      2.9121929E-05
  8.2227998E-06
  -50.00000       27.77778      2.9786344E-05  -2.862836      2.8636539E-05
  8.1960288E-06
  -50.00000       38.88889      2.9455157E-05  -2.860268      2.8297234E-05
  8.1775788E-06
  -50.00000       50.00000      2.8481532E-05  -2.851743      2.7293476E-05
  8.1402595E-06
  -38.88889      -50.00000      2.9454164E-05  -2.860373      2.8297136E-05
  8.1743437E-06
  -38.88889      -38.88889      2.9967461E-05  -2.864204      2.8821916E-05
  8.2064535E-06
  -38.88889      -27.77778      3.1240394E-05  -2.874480      3.0132518E-05
  8.2458191E-06
  -38.88889      -16.66667      3.2908996E-05  -2.887363      3.1851210E-05
  8.2766155E-06
  -38.88889      -5.555557      3.4090568E-05  -2.895926      3.3067015E-05
  8.2909201E-06
  -38.88889       5.555557      3.4090725E-05  -2.895925      3.3067157E-05
  8.2909901E-06
  -38.88889       16.66666      3.2909396E-05  -2.887360      3.1851574E-05
  8.2768183E-06
  -38.88889       27.77778      3.1240801E-05  -2.874477      3.0132889E-05
  8.2460137E-06
  -38.88889       38.88889      2.9967652E-05  -2.864203      2.8822096E-05
  8.2065189E-06
  -38.88889       50.00000      2.9454486E-05  -2.860371      2.8297432E-05
  8.1744774E-06
  -27.77778      -50.00000      2.9785639E-05  -2.862941      2.8636719E-05
  8.1928392E-06
  -27.77778      -38.88889      3.1238760E-05  -2.874687      3.0132649E-05
  8.2391534E-06
  -27.77778      -27.77778      3.4087534E-05  -2.896280      3.3066997E-05
  8.2785000E-06
  -27.77778      -16.66667      3.5640453E-05  -2.906203      3.4657616E-05
  8.3121240E-06
  -27.77778      -5.555557      3.8496990E-05  -2.922323      3.7575239E-05
  8.3737559E-06
  -27.77778       5.555557      3.8497492E-05  -2.922318      3.7575690E-05
  8.3740297E-06
  -27.77778       16.66666      3.5641187E-05  -2.906197      3.4658275E-05
  8.3125287E-06
  -27.77778       27.77778      3.4088345E-05  -2.896275      3.3067743E-05
  8.2788656E-06
  -27.77778       38.88889      3.1239342E-05  -2.874683      3.0133178E-05
  8.2394272E-06
  -27.77778       50.00000      2.9785768E-05  -2.862941      2.8636847E-05
  8.1928602E-06
  -16.66667      -50.00000      3.0257695E-05  -2.866765      2.9122180E-05
  8.2113802E-06
  -16.66667      -38.88889      3.2903867E-05  -2.887992      3.1851450E-05
  8.2552806E-06
  -16.66667      -27.77778      3.5636138E-05  -2.906724      3.4657744E-05
  8.2930774E-06
  -16.66667      -16.66667      4.2713302E-05  -2.946635      4.1904135E-05
  8.2746319E-06
  -16.66667      -5.555557      5.1547235E-05  -2.973713      5.0822549E-05
  8.6131258E-06
  -16.66667       5.555557      5.1549458E-05  -2.973697      5.0824598E-05
  8.6143336E-06
  -16.66667       16.66666      4.2714095E-05  -2.946618      4.1904776E-05
  8.2754823E-06
  -16.66667       27.77778      3.5637360E-05  -2.906713      3.4658842E-05
  8.2937331E-06
  -16.66667       38.88889      3.2904816E-05  -2.887985      3.1852305E-05
  8.2557535E-06
  -16.66667       50.00000      3.0258103E-05  -2.866763      2.9122557E-05
  8.2115448E-06
  -5.555557      -50.00000      3.0673680E-05  -2.870407      2.9552675E-05
  8.2166925E-06
  -5.555557      -38.88889      3.4081950E-05  -2.896983      3.3067394E-05
  8.2538918E-06
  -5.555557      -27.77778      3.8479717E-05  -2.924376      3.7575490E-05
  8.2928418E-06
  -5.555557      -16.66667      5.1511510E-05  -2.977866      5.0822633E-05
  8.3961650E-06
  -5.555557      -5.555557      9.5461925E-05  -3.040278      9.4972405E-05
  9.6551030E-06
  -5.555557       5.555557      9.5482916E-05  -3.040241      9.4992931E-05
  9.6607509E-06
  -5.555557       16.66666      5.1518240E-05  -2.977818      5.0828872E-05
  8.3996856E-06
  -5.555557       27.77778      3.8482201E-05  -2.924355      3.7577738E-05
  8.2941870E-06
  -5.555557       38.88889      3.4083110E-05  -2.896974      3.3068445E-05
  8.2544757E-06
  -5.555557       50.00000      3.0674251E-05  -2.870404      2.9553199E-05
  8.2169381E-06
   5.555557      -50.00000      3.0672505E-05  -2.870569      2.9552872E-05
  8.2115939E-06
   5.555557      -38.88889      3.4079254E-05  -2.897334      3.3067674E-05
  8.2416354E-06
   5.555557      -27.77778      3.8471637E-05  -2.925400      3.7576065E-05
  8.2526503E-06
   5.555557      -16.66667      5.1478957E-05  -2.982010      5.0824849E-05
  8.1803355E-06
   5.555557      -5.555557      9.5245712E-05  -3.068734      9.4993025E-05
  6.9333310E-06
   5.555557       5.555557      9.5266398E-05  -3.068723      9.5013580E-05
  6.9358503E-06
   5.555557       16.66666      5.1485677E-05  -2.981964      5.0831106E-05
  8.1837425E-06
   5.555557       27.77778      3.8474114E-05  -2.925379      3.7578306E-05
  8.2539855E-06
   5.555557       38.88889      3.4080433E-05  -2.897324      3.3068733E-05
  8.2422539E-06
   5.555557       50.00000      3.0673058E-05  -2.870565      2.9553377E-05
  8.2118431E-06
   16.66666      -50.00000      3.0255105E-05  -2.867129      2.9122677E-05
  8.2000652E-06
   16.66666      -38.88889      3.2896631E-05  -2.888934      3.1852200E-05
  8.2234774E-06
   16.66666      -27.77778      3.5623976E-05  -2.908281      3.4658784E-05
  8.2362894E-06
   16.66666      -16.66667      4.2716885E-05  -2.946331      4.1905136E-05
  8.2880551E-06
   16.66666      -5.555557      5.1449508E-05  -2.986145      5.0829149E-05
  7.9655256E-06
   16.66666       5.555557      5.1451709E-05  -2.986130      5.0831204E-05
  7.9666279E-06
   16.66666       16.66666      4.2717656E-05  -2.946318      4.1905783E-05
  8.2887600E-06
   16.66666       27.77778      3.5625224E-05  -2.908271      3.4659912E-05
  8.2369288E-06
   16.66666       38.88889      3.2897573E-05  -2.888927      3.1853055E-05
  8.2239476E-06
   16.66666       50.00000      3.0255504E-05  -2.867127      2.9123046E-05
  8.2002271E-06
   27.77778      -50.00000      2.9784143E-05  -2.863204      2.8637434E-05
  8.1848966E-06
   27.77778      -38.88889      3.1231015E-05  -2.875720      3.0133664E-05
  8.2060042E-06
   27.77778      -27.77778      3.4074055E-05  -2.898033      3.3068380E-05
  8.2172646E-06
   27.77778      -16.66667      3.5620204E-05  -2.908798      3.4659370E-05
  8.2174856E-06
   27.77778      -5.555557      3.8456583E-05  -2.927440      3.7578113E-05
  8.1727721E-06
   27.77778       5.555557      3.8457067E-05  -2.927436      3.7578553E-05
  8.1730332E-06
   27.77778       16.66666      3.5620946E-05  -2.908792      3.4660043E-05
  8.2178594E-06
   27.77778       27.77778      3.4074907E-05  -2.898024      3.3069133E-05
  8.2177621E-06
   27.77778       38.88889      3.1231579E-05  -2.875715      3.0134177E-05
  8.2062743E-06
   27.77778       50.00000      2.9784282E-05  -2.863204      2.8637574E-05
  8.1849139E-06
   38.88889      -50.00000      2.9449202E-05  -2.861094      2.8298256E-05
  8.1525577E-06
   38.88889      -38.88889      2.9963496E-05  -2.864800      2.8822995E-05
  8.1881635E-06
   38.88889      -27.77778      3.1229545E-05  -2.875926      3.0133937E-05
  8.1994112E-06
   38.88889      -16.66667      3.2892094E-05  -2.889560      3.1852949E-05
  8.2024080E-06
   38.88889      -5.555557      3.4071716E-05  -2.898379      3.3068951E-05
  8.2052575E-06
   38.88889       5.555557      3.4071898E-05  -2.898377      3.3069115E-05
  8.2053602E-06
   38.88889       16.66666      3.2892491E-05  -2.889557      3.1853306E-05
  8.2026063E-06
   38.88889       27.77778      3.1229953E-05  -2.875923      3.0134308E-05
  8.1996022E-06
   38.88889       38.88889      2.9963687E-05  -2.864800      2.8823177E-05
  8.1882245E-06
   38.88889       50.00000      2.9449537E-05  -2.861093      2.8298566E-05
  8.1526932E-06
   50.00000      -50.00000      2.8476681E-05  -2.852455      2.7294618E-05
  8.1194357E-06
   50.00000      -38.88889      2.9448525E-05  -2.861197      2.8298444E-05
  8.1494636E-06
   50.00000      -27.77778      2.9783572E-05  -2.863309      2.8637747E-05
  8.1817252E-06
   50.00000      -16.66667      3.0252671E-05  -2.867493      2.9123317E-05
  8.1888047E-06
   50.00000      -5.555557      3.0668012E-05  -2.871214      2.9553838E-05
  8.1913104E-06
   50.00000       5.555557      3.0668074E-05  -2.871214      2.9553896E-05
  8.1913413E-06
   50.00000       16.66666      3.0252801E-05  -2.867492      2.9123437E-05
  8.1888556E-06
   50.00000       27.77778      2.9783647E-05  -2.863309      2.8637822E-05
  8.1817343E-06
   50.00000       38.88889      2.9448773E-05  -2.861196      2.8298671E-05
  8.1495673E-06
   50.00000       50.00000      2.8476910E-05  -2.852454      2.7294831E-05
  8.1195240E-06
           1           2          12          11
           2           3          13          12
           3           4          14          13
           4           5          15          14
           5           6          16          15
           6           7          17          16
           7           8          18          17
           8           9          19          18
           9          10          20          19
          11          12          22          21
          12          13          23          22
          13          14          24          23
          14          15          25          24
          15          16          26          25
          16          17          27          26
          17          18          28          27
          18          19          29          28
          19          20          30          29
          21          22          32          31
          22          23          33          32
          23          24          34          33
          24          25          35          34
          25          26          36          35
          26          27          37          36
          27          28          38          37
          28          29          39          38
          29          30          40          39
          31          32          42          41
          32          33          43          42
          33          34          44          43
          34          35          45          44
          35          36          46          45
          36          37          47          46
          37          38          48          47
          38          39          49          48
          39          40          50          49
          41          42          52          51
          42          43          53          52
          43          44          54          53
          44          45          55          54
          45          46          56          55
          46          47          57          56
          47          48          58          57
          48          49          59          58
          49          50          60          59
          51          52          62          61
          52          53          63          62
          53          54          64          63
          54          55          65          64
          55          56          66          65
          56          57          67          66
          57          58          68          67
          58          59          69          68
          59          60          70          69
          61          62          72          71
          62          63          73          72
          63          64          74          73
          64          65          75          74
          65          66          76          75
          66          67          77          76
          67          68          78          77
          68          69          79          78
          69          70          80          79
          71          72          82          81
          72          73          83          82
          73          74          84          83
          74          75          85          84
          75          76          86          85
          76          77          87          86
          77          78          88          87
          78          79          89          88
          79          80          90          89
          81          82          92          91
          82          83          93          92
          83          84          94          93
          84          85          95          94
          85          86          96          95
          86          87          97          96
          87          88          98          97
          88          89          99          98
          89          90         100          99
