 VARIABLES="X" "Y" "abs(eta) (m)" "angle(phi) (rad)" "PRE1" "PRE2"
ZONE N=    100 ,E =      81 ,F=FEPOINT,ET=QUADRILATERAL
  -50.00000      -50.00000      4.7298204E-07   2.264515      3.0242518E-07
 -3.6366333E-07
  -50.00000      -38.88889      5.7335285E-07   2.141652      3.0981235E-07
 -4.8244146E-07
  -50.00000      -27.77778      5.8136709E-07   2.165566      3.2575062E-07
 -4.8153322E-07
  -50.00000      -16.66667      7.3941527E-07   2.030154      3.2783669E-07
 -6.6276544E-07
  -50.00000      -5.555557      8.4008019E-07   1.973364      3.2912851E-07
 -7.7292248E-07
  -50.00000       5.555557      8.4033707E-07   1.973239      3.2913246E-07
 -7.7319999E-07
  -50.00000       16.66666      7.3993300E-07   2.029860      3.2787102E-07
 -6.6332603E-07
  -50.00000       27.77778      5.8149470E-07   2.165521      3.2580041E-07
 -4.8165356E-07
  -50.00000       38.88889      5.7422483E-07   2.140831      3.0988659E-07
 -4.8342986E-07
  -50.00000       50.00000      4.7358992E-07   2.263652      3.0249953E-07
 -3.6439189E-07
  -38.88889      -50.00000      4.4501928E-07   2.138402      2.3924912E-07
 -3.7523594E-07
  -38.88889      -38.88889      5.0766181E-07   2.090839      2.5226569E-07
 -4.4054801E-07
  -38.88889      -27.77778      7.4431426E-07   1.920784      2.5521510E-07
 -6.9919167E-07
  -38.88889      -16.66667      9.8971134E-07   1.834802      2.5826427E-07
 -9.5542043E-07
  -38.88889      -5.555557      1.1578480E-06   1.797613      2.6037327E-07
 -1.1281923E-06
  -38.88889       5.555557      1.1587296E-06   1.797441      2.6037677E-07
 -1.1290962E-06
  -38.88889       16.66666      9.9175099E-07   1.834269      2.5828621E-07
 -9.5752716E-07
  -38.88889       27.77778      7.4620584E-07   1.919908      2.5524926E-07
 -7.0119256E-07
  -38.88889       38.88889      5.0830585E-07   2.090304      2.5235002E-07
 -4.4124175E-07
  -38.88889       50.00000      4.4612639E-07   2.137059      2.3933873E-07
 -3.7649133E-07
  -27.77778      -50.00000      3.2112692E-07   2.155903      1.7735454E-07
 -2.6770854E-07
  -27.77778      -38.88889      5.2995927E-07   1.916927      1.7979397E-07
 -4.9852878E-07
  -27.77778      -27.77778      8.2386117E-07   1.795207      1.8333517E-07
 -8.0320325E-07
  -27.77778      -16.66667      1.1073350E-06   1.741722      1.8835205E-07
 -1.0911986E-06
  -27.77778      -5.555557      1.8176864E-06   1.675074      1.8920082E-07
 -1.8078127E-06
  -27.77778       5.555557      1.8204712E-06   1.674924      1.8921953E-07
 -1.8106108E-06
  -27.77778       16.66666      1.1113522E-06   1.741119      1.8837474E-07
 -1.0952710E-06
  -27.77778       27.77778      8.2823391E-07   1.794081      1.8339919E-07
 -8.0767330E-07
  -27.77778       38.88889      5.3259220E-07   1.915283      1.7986341E-07
 -5.0130188E-07
  -27.77778       50.00000      3.2132465E-07   2.155852      1.7745023E-07
 -2.6788234E-07
  -16.66667      -50.00000      2.4338129E-07   2.010701      1.0364477E-07
 -2.2020949E-07
  -16.66667      -38.88889      4.1990231E-07   1.824812      1.0551826E-07
 -4.0642814E-07
  -16.66667      -27.77778      6.6020755E-07   1.736988      1.0921652E-07
 -6.5111118E-07
  -16.66667      -16.66667      4.6756628E-07   1.811050      1.1125713E-07
 -4.5413663E-07
  -16.66667      -5.555557      4.2954075E-06   1.596783      1.1161226E-07
 -4.2939573E-06
  -16.66667       5.555557      4.3076589E-06   1.596710      1.1161669E-07
 -4.3062128E-06
  -16.66667       16.66666      4.7583902E-07   1.806865      1.1129018E-07
 -4.6264162E-07
  -16.66667       27.77778      6.6678365E-07   1.735410      1.0926644E-07
 -6.5776993E-07
  -16.66667       38.88889      4.2460260E-07   1.822128      1.0559611E-07
 -4.1126248E-07
  -16.66667       50.00000      2.4489071E-07   2.008244      1.0374279E-07
 -2.2183077E-07
  -5.555557      -50.00000      8.9168999E-08   1.901387      2.8944447E-08
 -8.4340556E-08
  -5.555557      -38.88889      1.5863178E-07   1.756698      2.9320267E-08
 -1.5589856E-07
  -5.555557      -27.77778      3.5213898E-07   1.656396      3.0106097E-08
 -3.5084966E-07
  -5.555557      -16.66667      1.4087587E-06   1.592485      3.0552325E-08
 -1.4084275E-06
  -5.555557      -5.555557      1.4881961E-05   1.572866      3.0801846E-08
 -1.4881929E-05
  -5.555557       5.555557      1.4940211E-05   1.572859      3.0815155E-08
 -1.4940179E-05
  -5.555557       16.66666      1.4442719E-06   1.591965      3.0570416E-08
 -1.4439483E-06
  -5.555557       27.77778      3.6569605E-07   1.653407      3.0176206E-08
 -3.6444891E-07
  -5.555557       38.88889      1.6472158E-07   1.750176      2.9389442E-08
 -1.6207856E-07
  -5.555557       50.00000      9.1541750E-08   1.893475      2.9028639E-08
 -8.6817224E-08
   5.555557      -50.00000      9.8933761E-08  -1.086163     -4.6091646E-08
  8.7541132E-08
   5.555557      -38.88889      1.7398801E-07  -1.293139     -4.7690701E-08
  1.6732432E-07
   5.555557      -27.77778      3.7822625E-07  -1.439735     -4.9429143E-08
  3.7498248E-07
   5.555557      -16.66667      1.4666413E-06  -1.536363     -5.0492023E-08
  1.4657719E-06
   5.555557      -5.555557      1.4993973E-05  -1.567392     -5.1044090E-08
  1.4993886E-05
   5.555557       5.555557      1.4968655E-05  -1.567387     -5.1038292E-08
  1.4968567E-05
   5.555557       16.66666      1.4324511E-06  -1.535556     -5.0469019E-08
  1.4315617E-06
   5.555557       27.77778      3.6490258E-07  -1.435085     -4.9369437E-08
  3.6154745E-07
   5.555557       38.88889      1.6807279E-07  -1.283495     -4.7625981E-08
  1.6118383E-07
   5.555557       50.00000      9.6722914E-08  -1.075139     -4.6002402E-08
  8.5082910E-08
   16.66666      -50.00000      2.5244537E-07  -1.073198     -1.2049644E-07
  2.2183164E-07
   16.66666      -38.88889      4.3305621E-07  -1.281430     -1.2357062E-07
  4.1505180E-07
   16.66666      -27.77778      6.7764228E-07  -1.380473     -1.2819380E-07
  6.6540622E-07
   16.66666      -16.66667      4.9526341E-07  -1.303357     -1.3087964E-07
  4.7765718E-07
   16.66666      -5.555557      4.3319237E-06  -1.540427     -1.3153874E-07
  4.3299260E-06
   16.66666       5.555557      4.3209620E-06  -1.540351     -1.3153173E-07
  4.3189598E-06
   16.66666       16.66666      4.8863228E-07  -1.299680     -1.3085941E-07
  4.7078370E-07
   16.66666       27.77778      6.7145407E-07  -1.378771     -1.2814556E-07
  6.5911252E-07
   16.66666       38.88889      4.2849760E-07  -1.278446     -1.2349450E-07
  4.1031609E-07
   16.66666       50.00000      2.5103466E-07  -1.070568     -1.2040275E-07
  2.2027614E-07
   27.77778      -50.00000      3.2965551E-07 -0.9431275     -1.9359332E-07
  2.6682275E-07
   27.77778      -38.88889      5.4017687E-07  -1.197017     -1.9723822E-07
  5.0287986E-07
   27.77778      -27.77778      8.3759340E-07  -1.327608     -2.0169091E-07
  8.1294741E-07
   27.77778      -16.66667      1.1224454E-06  -1.385031     -2.0731447E-07
  1.1031339E-06
   27.77778      -5.555557      1.8335293E-06  -1.456843     -2.0848462E-07
  1.8216376E-06
   27.77778       5.555557      1.8309233E-06  -1.456680     -2.0848523E-07
  1.8190146E-06
   27.77778       16.66666      1.1187931E-06  -1.384444     -2.0728474E-07
  1.0994230E-06
   27.77778       27.77778      8.3337409E-07  -1.326414     -2.0164038E-07
  8.0861207E-07
   27.77778       38.88889      5.3766797E-07  -1.195345     -1.9715867E-07
  5.0021526E-07
   27.77778       50.00000      3.2952832E-07 -0.9431891     -1.9350222E-07
  2.6673172E-07
   38.88889      -50.00000      4.5264719E-07 -0.9734409     -2.5459494E-07
  3.7426045E-07
   38.88889      -38.88889      5.1618741E-07  -1.023097     -2.6879127E-07
  4.4068207E-07
   38.88889      -27.77778      7.5383571E-07  -1.200757     -2.7262655E-07
  7.0281084E-07
   38.88889      -16.66667      1.0003364E-06  -1.290977     -2.7627510E-07
  9.6142867E-07
   38.88889      -5.555557      1.1682293E-06  -1.329932     -2.7867179E-07
  1.1345051E-06
   38.88889       5.555557      1.1673898E-06  -1.329762     -2.7866463E-07
  1.1336423E-06
   38.88889       16.66666      9.9839872E-07  -1.290453     -2.7624219E-07
  9.5942187E-07
   38.88889       27.77778      7.5206526E-07  -1.199919     -2.7257363E-07
  7.0093205E-07
   38.88889       38.88889      5.1565399E-07  -1.022623     -2.6872235E-07
  4.4009923E-07
   38.88889       50.00000      4.5160550E-07 -0.9720767     -2.5451823E-07
  3.7305227E-07
   50.00000      -50.00000      4.7982405E-07 -0.8501336     -3.1662762E-07
  3.6052469E-07
   50.00000      -38.88889      5.8074710E-07 -0.9765844     -3.2513472E-07
  4.8120120E-07
   50.00000      -27.77778      5.8988064E-07 -0.9524370     -3.4195324E-07
  4.8065283E-07
   50.00000      -16.66667      7.4760430E-07  -1.091722     -3.4461402E-07
  6.6344057E-07
   50.00000      -5.555557      8.4793817E-07  -1.150235     -3.4618998E-07
  7.7404883E-07
   50.00000       5.555557      8.4771182E-07  -1.150104     -3.4619885E-07
  7.7379690E-07
   50.00000       16.66666      7.4714330E-07  -1.091444     -3.4458620E-07
  6.6293546E-07
   50.00000       27.77778      5.8983267E-07 -0.9524733     -3.4190799E-07
  4.8062617E-07
   50.00000       38.88889      5.7994549E-07 -0.9757689     -3.2507768E-07
  4.8027209E-07
   50.00000       50.00000      4.7925914E-07 -0.8493453     -3.1653863E-07
  3.5985082E-07
           1           2          12          11
           2           3          13          12
           3           4          14          13
           4           5          15          14
           5           6          16          15
           6           7          17          16
           7           8          18          17
           8           9          19          18
           9          10          20          19
          11          12          22          21
          12          13          23          22
          13          14          24          23
          14          15          25          24
          15          16          26          25
          16          17          27          26
          17          18          28          27
          18          19          29          28
          19          20          30          29
          21          22          32          31
          22          23          33          32
          23          24          34          33
          24          25          35          34
          25          26          36          35
          26          27          37          36
          27          28          38          37
          28          29          39          38
          29          30          40          39
          31          32          42          41
          32          33          43          42
          33          34          44          43
          34          35          45          44
          35          36          46          45
          36          37          47          46
          37          38          48          47
          38          39          49          48
          39          40          50          49
          41          42          52          51
          42          43          53          52
          43          44          54          53
          44          45          55          54
          45          46          56          55
          46          47          57          56
          47          48          58          57
          48          49          59          58
          49          50          60          59
          51          52          62          61
          52          53          63          62
          53          54          64          63
          54          55          65          64
          55          56          66          65
          56          57          67          66
          57          58          68          67
          58          59          69          68
          59          60          70          69
          61          62          72          71
          62          63          73          72
          63          64          74          73
          64          65          75          74
          65          66          76          75
          66          67          77          76
          67          68          78          77
          68          69          79          78
          69          70          80          79
          71          72          82          81
          72          73          83          82
          73          74          84          83
          74          75          85          84
          75          76          86          85
          76          77          87          86
          77          78          88          87
          78          79          89          88
          79          80          90          89
          81          82          92          91
          82          83          93          92
          83          84          94          93
          84          85          95          94
          85          86          96          95
          86          87          97          96
          87          88          98          97
          88          89          99          98
          89          90         100          99
