 VARIABLES="X" "Y" "abs(eta) (m)" "angle(phi) (rad)" "PRE1" "PRE2"
ZONE N=    100 ,E =      81 ,F=FEPOINT,ET=QUADRILATERAL
  -50.00000      -50.00000      1.2716426E-08   1.559998     -1.3731329E-10
 -1.2715685E-08
  -50.00000      -38.88889      1.9042185E-08   1.563590     -1.3722287E-10
 -1.9041691E-08
  -50.00000      -27.77778      2.3011328E-09   1.510972     -1.3758217E-10
 -2.2970161E-09
  -50.00000      -16.66667      2.3031912E-08   1.564828     -1.3747102E-10
 -2.3031502E-08
  -50.00000      -5.555557      3.5659816E-08   1.566942     -1.3743764E-10
 -3.5659550E-08
  -50.00000       5.555557      3.5726885E-08   1.566958     -1.3714356E-10
 -3.5726622E-08
  -50.00000       16.66666      2.3163574E-08   1.564863     -1.3744066E-10
 -2.3163166E-08
  -50.00000       27.77778      2.3252968E-09   1.511732     -1.3726263E-10
 -2.3212421E-09
  -50.00000       38.88889      1.9289518E-08   1.563684     -1.3718551E-10
 -1.9289029E-08
  -50.00000       50.00000      1.2923772E-08   1.560165     -1.3739938E-10
 -1.2923042E-08
  -38.88889      -50.00000      1.4574747E-08   1.561029     -1.4235953E-10
 -1.4574051E-08
  -38.88889      -38.88889      9.1340837E-09   1.555226     -1.4221463E-10
 -9.1329762E-09
  -38.88889      -27.77778      3.8673527E-08   1.567110     -1.4257742E-10
 -3.8673264E-08
  -38.88889      -16.66667      6.7987067E-08   1.568701     -1.4245007E-10
 -6.7986917E-08
  -38.88889      -5.555557      4.9005010E-08   1.567891     -1.4238306E-10
 -4.9004804E-08
  -38.88889       5.555557      4.9084026E-08   1.567894     -1.4244710E-10
 -4.9083820E-08
  -38.88889       16.66666      6.8483303E-08   1.568716     -1.4249033E-10
 -6.8483153E-08
  -38.88889       27.77778      3.9152948E-08   1.567159     -1.4240617E-10
 -3.9152688E-08
  -38.88889       38.88889      9.2988941E-09   1.555491     -1.4231753E-10
 -9.2978052E-09
  -38.88889       50.00000      1.4896128E-08   1.561246     -1.4226360E-10
 -1.4895448E-08
  -27.77778      -50.00000      9.3375996E-10   1.412122     -1.4754260E-10
 -9.2202979E-10
  -27.77778      -38.88889      2.7224827E-08   1.565388     -1.4724823E-10
 -2.7224429E-08
  -27.77778      -27.77778      3.4367154E-08   1.566512     -1.4722969E-10
 -3.4366838E-08
  -27.77778      -16.66667      9.3317531E-08   1.569215     -1.4754276E-10
 -9.3317418E-08
  -27.77778      -5.555557      2.1604646E-07   1.570114     -1.4746995E-10
 -2.1604640E-07
  -27.77778       5.555557      2.1672972E-07   1.570116     -1.4750848E-10
 -2.1672966E-07
  -27.77778       16.66666      9.4327739E-08   1.569234     -1.4735588E-10
 -9.4327625E-08
  -27.77778       27.77778      3.5028517E-08   1.566586     -1.4749657E-10
 -3.5028208E-08
  -27.77778       38.88889      2.7885026E-08   1.565506     -1.4751105E-10
 -2.7884635E-08
  -27.77778       50.00000      9.7540342E-10   1.419333     -1.4717327E-10
 -9.6423647E-10
  -16.66667      -50.00000      6.9771735E-09   1.548936     -1.5250788E-10
 -6.9755064E-09
  -16.66667      -38.88889      2.8126777E-08   1.565374     -1.5250555E-10
 -2.8126363E-08
  -16.66667      -27.77778      5.5037660E-08   1.568022     -1.5270495E-10
 -5.5037447E-08
  -16.66667      -16.66667      3.2812178E-08  -1.566147     -1.5254399E-10
  3.2811823E-08
  -16.66667      -5.555557      7.5798289E-07   1.570595     -1.5236337E-10
 -7.5798289E-07
  -16.66667       5.555557      7.6100639E-07   1.570596     -1.5260589E-10
 -7.6100639E-07
  -16.66667       16.66666      3.0677036E-08  -1.565822     -1.5260505E-10
  3.0676656E-08
  -16.66667       27.77778      5.6697310E-08   1.568107     -1.5244905E-10
 -5.6697104E-08
  -16.66667       38.88889      2.9283688E-08   1.565590     -1.5247395E-10
 -2.9283292E-08
  -16.66667       50.00000      7.3718236E-09   1.550132     -1.5232042E-10
 -7.3702497E-09
  -5.555557      -50.00000      2.9459333E-09   1.517312     -1.5748594E-10
 -2.9417209E-09
  -5.555557      -38.88889      5.5997593E-09   1.542634     -1.5768063E-10
 -5.5975389E-09
  -5.555557      -27.77778      4.0579277E-08   1.566914     -1.5752306E-10
 -4.0578971E-08
  -5.555557      -16.66667      2.4733032E-07   1.570159     -1.5759734E-10
 -2.4733026E-07
  -5.555557      -5.555557      3.3504284E-06   1.570749     -1.5761618E-10
 -3.3504284E-06
  -5.555557       5.555557      3.3643137E-06   1.570750     -1.5738350E-10
 -3.3643137E-06
  -5.555557       16.66666      2.5613249E-07   1.570182     -1.5746038E-10
 -2.5613244E-07
  -5.555557       27.77778      4.3934335E-08   1.567214     -1.5737388E-10
 -4.3934055E-08
  -5.555557       38.88889      6.6139285E-09   1.547000     -1.5737443E-10
 -6.6120558E-09
  -5.555557       50.00000      3.5469150E-09   1.526380     -1.5748976E-10
 -3.5434169E-09
   5.555557      -50.00000      5.1722036E-09  -1.539369     -1.6252097E-10
  5.1696496E-09
   5.555557      -38.88889      8.7242755E-09  -1.552164     -1.6254177E-10
  8.7227612E-09
   5.555557      -27.77778      4.6493522E-08  -1.567299     -1.6261247E-10
  4.6493238E-08
   5.555557      -16.66667      2.6049113E-07  -1.570173     -1.6249901E-10
  2.6049108E-07
   5.555557      -5.555557      3.3752526E-06  -1.570748     -1.6262679E-10
  3.3752526E-06
   5.555557       5.555557      3.3690144E-06  -1.570748     -1.6254943E-10
  3.3690144E-06
   5.555557       16.66666      2.5195862E-07  -1.570151     -1.6247909E-10
  2.5195857E-07
   5.555557       27.77778      4.3166622E-08  -1.567031     -1.6253750E-10
  4.3166317E-08
   5.555557       38.88889      7.5734992E-09  -1.549344     -1.6245459E-10
  7.5717566E-09
   5.555557       50.00000      4.5756443E-09  -1.535265     -1.6254563E-10
  4.5727564E-09
   16.66666      -50.00000      8.9519947E-09  -1.552078     -1.6755712E-10
  8.9504262E-09
   16.66666      -38.88889      3.1176562E-08  -1.565420     -1.6762898E-10
  3.1176111E-08
   16.66666      -27.77778      5.8857719E-08  -1.567951     -1.6747025E-10
  5.8857481E-08
   16.66666      -16.66667      2.7480692E-08   1.564694     -1.6768366E-10
 -2.7480180E-08
   16.66666      -5.555557      7.6574935E-07  -1.570578     -1.6757723E-10
  7.6574935E-07
   16.66666       5.555557      7.6299648E-07  -1.570577     -1.6760070E-10
  7.6299648E-07
   16.66666       16.66666      2.9283981E-08   1.565080     -1.6738667E-10
 -2.9283504E-08
   16.66666       27.77778      5.7260909E-08  -1.567867     -1.6771164E-10
  5.7260664E-08
   16.66666       38.88889      3.0030261E-08  -1.565216     -1.6757076E-10
  3.0029792E-08
   16.66666       50.00000      8.5628420E-09  -1.551235     -1.6748568E-10
  8.5612042E-09
   27.77778      -50.00000      2.5106086E-09  -1.502026     -1.7251935E-10
  2.5046742E-09
   27.77778      -38.88889      2.9578272E-08  -1.564968     -1.7238595E-10
  2.9577770E-08
   27.77778      -27.77778      3.7001463E-08  -1.566133     -1.7253665E-10
  3.7001062E-08
   27.77778      -16.66667      9.6523756E-08  -1.569009     -1.7251361E-10
  9.6523600E-08
   27.77778      -5.555557      2.1937539E-07  -1.570009     -1.7261470E-10
  2.1937532E-07
   27.77778       5.555557      2.1871961E-07  -1.570007     -1.7253964E-10
  2.1871953E-07
   27.77778       16.66666      9.5577541E-08  -1.568990     -1.7266986E-10
  9.5577384E-08
   27.77778       27.77778      3.6049219E-08  -1.566014     -1.7240605E-10
  3.6048807E-08
   27.77778       38.88889      2.8928076E-08  -1.564831     -1.7255029E-10
  2.8927561E-08
   27.77778       50.00000      2.4788325E-09  -1.501215     -1.7234235E-10
  2.4728342E-09
   38.88889      -50.00000      1.6440444E-08  -1.560004     -1.7742582E-10
  1.6439486E-08
   38.88889      -38.88889      1.0854697E-08  -1.554446     -1.7747452E-10
  1.0853245E-08
   38.88889      -27.77778      4.0843947E-08  -1.566448     -1.7760785E-10
  4.0843560E-08
   38.88889      -16.66667      7.0393362E-08  -1.568275     -1.7748396E-10
  7.0393142E-08
   38.88889      -5.555557      5.0796174E-08  -1.567301     -1.7752710E-10
  5.0795865E-08
   38.88889       5.555557      5.0560441E-08  -1.567285     -1.7751112E-10
  5.0560129E-08
   38.88889       16.66666      6.9907664E-08  -1.568258     -1.7741648E-10
  6.9907436E-08
   38.88889       27.77778      4.0384080E-08  -1.566401     -1.7750729E-10
  4.0383689E-08
   38.88889       38.88889      1.0702791E-08  -1.554208     -1.7753216E-10
  1.0701318E-08
   38.88889       50.00000      1.6128530E-08  -1.559785     -1.7759420E-10
  1.6127553E-08
   50.00000      -50.00000      1.4372493E-08  -1.558101     -1.8246117E-10
  1.4371335E-08
   50.00000      -38.88889      2.0838240E-08  -1.562040     -1.8245648E-10
  2.0837440E-08
   50.00000      -27.77778      3.8769907E-09  -1.523715     -1.8246812E-10
  3.8726946E-09
   50.00000      -16.66667      2.4752129E-08  -1.563417     -1.8265371E-10
  2.4751456E-08
   50.00000      -5.555557      3.7365609E-08  -1.565908     -1.8265738E-10
  3.7365162E-08
   50.00000       5.555557      3.7300257E-08  -1.565903     -1.8251747E-10
  3.7299809E-08
   50.00000       16.66666      2.4627932E-08  -1.563388     -1.8245641E-10
  2.4627257E-08
   50.00000       27.77778      3.8571168E-09  -1.523488     -1.8240473E-10
  3.8528016E-09
   50.00000       38.88889      2.0594172E-08  -1.561943     -1.8231827E-10
  2.0593365E-08
   50.00000       50.00000      1.4165023E-08  -1.557902     -1.8263650E-10
  1.4163845E-08
           1           2          12          11
           2           3          13          12
           3           4          14          13
           4           5          15          14
           5           6          16          15
           6           7          17          16
           7           8          18          17
           8           9          19          18
           9          10          20          19
          11          12          22          21
          12          13          23          22
          13          14          24          23
          14          15          25          24
          15          16          26          25
          16          17          27          26
          17          18          28          27
          18          19          29          28
          19          20          30          29
          21          22          32          31
          22          23          33          32
          23          24          34          33
          24          25          35          34
          25          26          36          35
          26          27          37          36
          27          28          38          37
          28          29          39          38
          29          30          40          39
          31          32          42          41
          32          33          43          42
          33          34          44          43
          34          35          45          44
          35          36          46          45
          36          37          47          46
          37          38          48          47
          38          39          49          48
          39          40          50          49
          41          42          52          51
          42          43          53          52
          43          44          54          53
          44          45          55          54
          45          46          56          55
          46          47          57          56
          47          48          58          57
          48          49          59          58
          49          50          60          59
          51          52          62          61
          52          53          63          62
          53          54          64          63
          54          55          65          64
          55          56          66          65
          56          57          67          66
          57          58          68          67
          58          59          69          68
          59          60          70          69
          61          62          72          71
          62          63          73          72
          63          64          74          73
          64          65          75          74
          65          66          76          75
          66          67          77          76
          67          68          78          77
          68          69          79          78
          69          70          80          79
          71          72          82          81
          72          73          83          82
          73          74          84          83
          74          75          85          84
          75          76          86          85
          76          77          87          86
          77          78          88          87
          78          79          89          88
          79          80          90          89
          81          82          92          91
          82          83          93          92
          83          84          94          93
          84          85          95          94
          85          86          96          95
          86          87          97          96
          87          88          98          97
          88          89          99          98
          89          90         100          99
