 VARIABLES="X" "Y" "abs(eta) (m)" "angle(phi) (rad)" "PRE1" "PRE2"
ZONE N=    100 ,E =      81 ,F=FEPOINT,ET=QUADRILATERAL
  -50.00000      -50.00000      9.1542615E-06   2.821225      8.6884902E-06
 -2.8828192E-06
  -50.00000      -38.88889      1.0840761E-05   2.671325      9.6639633E-06
 -4.9122204E-06
  -50.00000      -27.77778      1.2499412E-05   2.504373      1.0046440E-05
 -7.4366885E-06
  -50.00000      -16.66667      1.4146404E-05   2.399853      1.0430064E-05
 -9.5569094E-06
  -50.00000      -5.555557      1.4865433E-05   2.396336      1.0924816E-05
 -1.0081145E-05
  -50.00000       5.555557      1.4866589E-05   2.396266      1.0924958E-05
 -1.0082697E-05
  -50.00000       16.66666      1.4151144E-05   2.399561      1.0430768E-05
 -9.5631549E-06
  -50.00000       27.77778      1.2505268E-05   2.503885      1.0047518E-05
 -7.4450727E-06
  -50.00000       38.88889      1.0844803E-05   2.670877      9.6653630E-06
 -4.9183845E-06
  -50.00000       50.00000      9.1577595E-06   2.820621      8.6900682E-06
 -2.8891654E-06
  -38.88889      -50.00000      8.3614241E-06   2.662811      7.4212376E-06
 -3.8520957E-06
  -38.88889      -38.88889      1.0236961E-05   2.440215      7.8205676E-06
 -6.6056118E-06
  -38.88889      -27.77778      1.2644214E-05   2.300328      8.4276317E-06
 -9.4260895E-06
  -38.88889      -16.66667      1.6037431E-05   2.137679      8.6121836E-06
 -1.3528839E-05
  -38.88889      -5.555557      1.5891274E-05   2.165251      8.9000278E-06
 -1.3165184E-05
  -38.88889       5.555557      1.5892232E-05   2.165231      8.9002888E-06
 -1.3166165E-05
  -38.88889       16.66666      1.6052494E-05   2.137139      8.6129594E-06
 -1.3546198E-05
  -38.88889       27.77778      1.2655101E-05   2.299679      8.4287567E-06
 -9.4396846E-06
  -38.88889       38.88889      1.0246968E-05   2.439273      7.8219809E-06
 -6.6194398E-06
  -38.88889       50.00000      8.3665082E-06   2.662081      7.4229374E-06
 -3.8598514E-06
  -27.77778      -50.00000      6.7854103E-06   2.479954      5.3535991E-06
 -4.1690250E-06
  -27.77778      -38.88889      8.9057476E-06   2.285795      5.8387577E-06
 -6.7246742E-06
  -27.77778      -27.77778      1.1191893E-05   2.152397      6.1484029E-06
 -9.3517701E-06
  -27.77778      -16.66667      1.8225355E-05   1.926148      6.3409693E-06
 -1.7086710E-05
  -27.77778      -5.555557      2.6611911E-05   1.813730      6.4015376E-06
 -2.5830488E-05
  -27.77778       5.555557      2.6637892E-05   1.813496      6.4017240E-06
 -2.5857209E-05
  -27.77778       16.66666      1.8263765E-05   1.925415      6.3417779E-06
 -1.7127375E-05
  -27.77778       27.77778      1.1199662E-05   2.152091      6.1498017E-06
 -9.3601484E-06
  -27.77778       38.88889      8.9208434E-06   2.284553      5.8402829E-06
 -6.7433330E-06
  -27.77778       50.00000      6.7958140E-06   2.478419      5.3553881E-06
 -4.1836474E-06
  -16.66667      -50.00000      4.4579551E-06   2.338606      3.0963233E-06
 -3.2072019E-06
  -16.66667      -38.88889      6.6035059E-06   2.092748      3.2923299E-06
 -5.7242337E-06
  -16.66667      -27.77778      1.0700704E-05   1.902520      3.4849347E-06
 -1.0117327E-05
  -16.66667      -16.66667      1.2268644E-05   1.871298      3.6315171E-06
 -1.1718862E-05
  -16.66667      -5.555557      5.3310854E-05   1.639186      3.6430652E-06
 -5.3186232E-05
  -16.66667       5.555557      5.3426800E-05   1.639041      3.6432896E-06
 -5.3302432E-05
  -16.66667       16.66666      1.2351745E-05   1.869282      3.6323204E-06
 -1.1805585E-05
  -16.66667       27.77778      1.0763777E-05   1.900621      3.4861450E-06
 -1.0183599E-05
  -16.66667       38.88889      6.6385624E-06   2.090016      3.2940720E-06
 -5.7636448E-06
  -16.66667       50.00000      4.4731914E-06   2.335910      3.0982176E-06
 -3.2265289E-06
  -5.555557      -50.00000      1.3189123E-06   2.111783      6.7921638E-07
 -1.1305727E-06
  -5.555557      -38.88889      1.8478152E-06   1.927863      6.4586214E-07
 -1.7312663E-06
  -5.555557      -27.77778      4.8172315E-06   1.698421      6.1313159E-07
 -4.7780527E-06
  -5.555557      -16.66667      1.7015551E-05   1.606667      6.1022752E-07
 -1.7004604E-05
  -5.555557      -5.555557      1.6331322E-04   1.574534      6.1046183E-07
 -1.6331208E-04
  -5.555557       5.555557      1.6384028E-04   1.574524      6.1071290E-07
 -1.6383914E-04
  -5.555557       16.66666      1.7348650E-05   1.606010      6.1078094E-07
 -1.7337894E-05
  -5.555557       27.77778      4.9453020E-06   1.695326      6.1424572E-07
 -4.9070068E-06
  -5.555557       38.88889      1.8672409E-06   1.925014      6.4766544E-07
 -1.7513190E-06
  -5.555557       50.00000      1.3306096E-06   2.108049      6.8097592E-07
 -1.1431508E-06
   5.555557      -50.00000      2.1827352E-06 -0.5312175     -1.8819345E-06
  1.1057375E-06
   5.555557      -38.88889      2.9560595E-06 -0.7781923     -2.1052572E-06
  2.0751336E-06
   5.555557      -27.77778      6.1606979E-06  -1.191544     -2.2808508E-06
  5.7229290E-06
   5.555557      -16.66667      1.9225210E-05  -1.444437     -2.4228179E-06
  1.9071933E-05
   5.555557      -5.555557      1.6779067E-04  -1.555914     -2.4969959E-06
  1.6777209E-04
   5.555557       5.555557      1.6759493E-04  -1.555898     -2.4968479E-06
  1.6757633E-04
   5.555557       16.66666      1.8908127E-05  -1.442346     -2.4220810E-06
  1.8752355E-05
   5.555557       27.77778      6.0428429E-06  -1.183948     -2.2797947E-06
  5.5962923E-06
   5.555557       38.88889      2.9379203E-06 -0.7725439     -2.1039548E-06
  2.0505488E-06
   5.555557       50.00000      2.1751300E-06 -0.5267879     -1.8802398E-06
  1.0935669E-06
   16.66666      -50.00000      5.2712580E-06 -0.6371256     -4.2370848E-06
  3.1358052E-06
   16.66666      -38.88889      7.5869252E-06 -0.9049977     -4.6863479E-06
  5.9665381E-06
   16.66666      -27.77778      1.1894556E-05  -1.129283     -5.0826361E-06
  1.0753943E-05
   16.66666      -16.66667      1.4020668E-05  -1.177694     -5.3707054E-06
  1.2951241E-05
   16.66666      -5.555557      5.5326127E-05  -1.472032     -5.4553516E-06
  5.5056513E-05
   16.66666       5.555557      5.5224893E-05  -1.471853     -5.4552074E-06
  5.4954795E-05
   16.66666       16.66666      1.3956739E-05  -1.175843     -5.3700724E-06
  1.2882270E-05
   16.66666       27.77778      1.1838331E-05  -1.127156     -5.0813678E-06
  1.0692323E-05
   16.66666       38.88889      7.5563566E-06 -0.9020684     -4.6848531E-06
  5.9288004E-06
   16.66666       50.00000      5.2583759E-06 -0.6341724     -4.2359497E-06
  3.1156458E-06
   27.77778      -50.00000      7.5240946E-06 -0.5593712     -6.3773396E-06
  3.9926858E-06
   27.77778      -38.88889      9.8137307E-06 -0.7613408     -7.1042737E-06
  6.7704209E-06
   27.77778      -27.77778      1.2311691E-05 -0.9046700     -7.6079486E-06
  9.6797130E-06
   27.77778      -16.66667      1.9398936E-05  -1.149215     -7.9381189E-06
  1.7700424E-05
   27.77778      -5.555557      2.7872529E-05  -1.277116     -8.0684649E-06
  2.6679163E-05
   27.77778       5.555557      2.7849206E-05  -1.276872     -8.0681975E-06
  2.6654878E-05
   27.77778       16.66666      1.9365838E-05  -1.148480     -7.9375677E-06
  1.7664390E-05
   27.77778       27.77778      1.2293092E-05 -0.9035417     -7.6073566E-06
  9.6565136E-06
   27.77778       38.88889      9.8012642E-06 -0.7601965     -7.1029822E-06
  6.7536971E-06
   27.77778       50.00000      7.5157041E-06 -0.5579483     -6.3758962E-06
  3.9791653E-06
   38.88889      -50.00000      9.0114117E-06 -0.4065829     -8.2767792E-06
  3.5637706E-06
   38.88889      -38.88889      1.1007945E-05 -0.6288681     -8.9020577E-06
  6.4752016E-06
   38.88889      -27.77778      1.3549181E-05 -0.7736452     -9.6926551E-06
  9.4674569E-06
   38.88889      -16.66667      1.7005570E-05 -0.9417790     -1.0005235E-05
  1.3750806E-05
   38.88889      -5.555557      1.6993123E-05 -0.9152066     -1.0359464E-05
  1.3470253E-05
   38.88889       5.555557      1.6988775E-05 -0.9150220     -1.0359298E-05
  1.3464895E-05
   38.88889       16.66666      1.6992539E-05 -0.9412630     -1.0004656E-05
  1.3735110E-05
   38.88889       27.77778      1.3540417E-05 -0.7730726     -9.6918020E-06
  9.4557854E-06
   38.88889       38.88889      1.0999679E-05 -0.6280104     -8.9009191E-06
  6.4627070E-06
   38.88889       50.00000      9.0074000E-06 -0.4059767     -8.2752522E-06
  3.5571691E-06
   50.00000      -50.00000      9.6679723E-06 -0.2622033     -9.3375329E-06
  2.5060276E-06
   50.00000      -38.88889      1.1490039E-05 -0.4140460     -1.0519138E-05
  4.6226346E-06
   50.00000      -27.77778      1.3235092E-05 -0.5801511     -1.1069565E-05
  7.2548200E-06
   50.00000      -16.66667      1.4952771E-05 -0.6859568     -1.1570653E-05
  9.4712905E-06
   50.00000      -5.555557      1.5747708E-05 -0.6919166     -1.2126122E-05
  1.0047261E-05
   50.00000       5.555557      1.5746880E-05 -0.6918654     -1.2125999E-05
  1.0046112E-05
   50.00000       16.66666      1.4948196E-05 -0.6855882     -1.1570603E-05
  9.4641282E-06
   50.00000       27.77778      1.3230443E-05 -0.5797256     -1.1068761E-05
  7.2475632E-06
   50.00000       38.88889      1.1487062E-05 -0.4136816     -1.0518094E-05
  4.6176046E-06
   50.00000       50.00000      9.6654903E-06 -0.2616931     -9.3364124E-06
  2.5006211E-06
           1           2          12          11
           2           3          13          12
           3           4          14          13
           4           5          15          14
           5           6          16          15
           6           7          17          16
           7           8          18          17
           8           9          19          18
           9          10          20          19
          11          12          22          21
          12          13          23          22
          13          14          24          23
          14          15          25          24
          15          16          26          25
          16          17          27          26
          17          18          28          27
          18          19          29          28
          19          20          30          29
          21          22          32          31
          22          23          33          32
          23          24          34          33
          24          25          35          34
          25          26          36          35
          26          27          37          36
          27          28          38          37
          28          29          39          38
          29          30          40          39
          31          32          42          41
          32          33          43          42
          33          34          44          43
          34          35          45          44
          35          36          46          45
          36          37          47          46
          37          38          48          47
          38          39          49          48
          39          40          50          49
          41          42          52          51
          42          43          53          52
          43          44          54          53
          44          45          55          54
          45          46          56          55
          46          47          57          56
          47          48          58          57
          48          49          59          58
          49          50          60          59
          51          52          62          61
          52          53          63          62
          53          54          64          63
          54          55          65          64
          55          56          66          65
          56          57          67          66
          57          58          68          67
          58          59          69          68
          59          60          70          69
          61          62          72          71
          62          63          73          72
          63          64          74          73
          64          65          75          74
          65          66          76          75
          66          67          77          76
          67          68          78          77
          68          69          79          78
          69          70          80          79
          71          72          82          81
          72          73          83          82
          73          74          84          83
          74          75          85          84
          75          76          86          85
          76          77          87          86
          77          78          88          87
          78          79          89          88
          79          80          90          89
          81          82          92          91
          82          83          93          92
          83          84          94          93
          84          85          95          94
          85          86          96          95
          86          87          97          96
          87          88          98          97
          88          89          99          98
          89          90         100          99
