 VARIABLES="X" "Y" "abs(eta) (m)" "angle(phi) (rad)" "PRE1" "PRE2"
ZONE N=    100 ,E =      81 ,F=FEPOINT,ET=QUADRILATERAL
  -50.00000      -50.00000      3.9785419E-07   1.540050     -1.2230524E-08
 -3.9766616E-07
  -50.00000      -38.88889      3.9717332E-07   1.539283     -1.2514006E-08
 -3.9697613E-07
  -50.00000      -27.77778      3.9329458E-07   1.538419     -1.2731757E-08
 -3.9308844E-07
  -50.00000      -16.66667      3.8706159E-07   1.537509     -1.2881813E-08
 -3.8684718E-07
  -50.00000      -5.555557      3.8251625E-07   1.536899     -1.2963710E-08
 -3.8229652E-07
  -50.00000       5.555557      3.8241672E-07   1.536856     -1.2976979E-08
 -3.8219648E-07
  -50.00000       16.66666      3.8680167E-07   1.537384     -1.2921564E-08
 -3.8658578E-07
  -50.00000       27.77778      3.9296751E-07   1.538224     -1.2797782E-08
 -3.9275906E-07
  -50.00000       38.88889      3.9688561E-07   1.539028     -1.2606114E-08
 -3.9668535E-07
  -50.00000       50.00000      3.9744009E-07   1.539728     -1.2346000E-08
 -3.9724830E-07
  -38.88889      -50.00000      3.9725541E-07   1.539356     -1.2487610E-08
 -3.9705910E-07
  -38.88889      -38.88889      3.9078463E-07   1.538104     -1.2773553E-08
 -3.9057582E-07
  -38.88889      -27.77778      3.7730427E-07   1.536354     -1.2992564E-08
 -3.7708051E-07
  -38.88889      -16.66667      3.6656277E-07   1.534931     -1.3144175E-08
 -3.6632704E-07
  -38.88889      -5.555557      3.6493515E-07   1.534543     -1.3227328E-08
 -3.6469535E-07
  -38.88889       5.555557      3.6482655E-07   1.534495     -1.3240810E-08
 -3.6458619E-07
  -38.88889       16.66666      3.6645292E-07   1.534810     -1.3184581E-08
 -3.6621566E-07
  -38.88889       27.77778      3.7673115E-07   1.536125     -1.3059067E-08
 -3.7650474E-07
  -38.88889       38.88889      3.9025727E-07   1.537822     -1.2866141E-08
 -3.9004513E-07
  -38.88889       50.00000      3.9688561E-07   1.539029     -1.2606043E-08
 -3.9668535E-07
  -27.77778      -50.00000      3.9355197E-07   1.538574     -1.2678825E-08
 -3.9334768E-07
  -27.77778      -38.88889      3.7752778E-07   1.536445     -1.2965915E-08
 -3.7730507E-07
  -27.77778      -27.77778      3.6525654E-07   1.534685     -1.3186845E-08
 -3.6501842E-07
  -27.77778      -16.66667      3.3890740E-07   1.531425     -1.3339748E-08
 -3.3864475E-07
  -27.77778      -5.555557      3.0795985E-07   1.527195     -1.3423084E-08
 -3.0766716E-07
  -27.77778       5.555557      3.0746219E-07   1.527081     -1.3436638E-08
 -3.0716845E-07
  -27.77778       16.66666      3.3793862E-07   1.531192     -1.3380303E-08
 -3.3767361E-07
  -27.77778       27.77778      3.6471303E-07   1.534447     -1.3254211E-08
 -3.6447210E-07
  -27.77778       38.88889      3.7672530E-07   1.536125     -1.3059013E-08
 -3.7649889E-07
  -27.77778       50.00000      3.9296370E-07   1.538224     -1.2797665E-08
 -3.9275525E-07
  -16.66667      -50.00000      3.8757085E-07   1.537759     -1.2802151E-08
 -3.8735936E-07
  -16.66667      -38.88889      3.6671284E-07   1.535093     -1.3090188E-08
 -3.6647913E-07
  -16.66667      -27.77778      3.3952924E-07   1.531577     -1.3312670E-08
 -3.3926815E-07
  -16.66667      -16.66667      2.7840591E-07   1.522409     -1.3466067E-08
 -2.7808005E-07
  -16.66667      -5.555557      1.7537184E-07   1.493457     -1.3549676E-08
 -1.7484761E-07
  -16.66667       5.555557      1.7351925E-07   1.492550     -1.3563313E-08
 -1.7298835E-07
  -16.66667       16.66666      2.7662321E-07   1.521949     -1.3506861E-08
 -2.7629326E-07
  -16.66667       27.77778      3.3791497E-07   1.531189     -1.3380244E-08
 -3.3764996E-07
  -16.66667       38.88889      3.6645656E-07   1.534810     -1.3184472E-08
 -3.6621930E-07
  -16.66667       50.00000      3.8679070E-07   1.537383     -1.2921393E-08
 -3.8657481E-07
  -5.555557      -50.00000      3.8329463E-07   1.537246     -1.2857301E-08
 -3.8307894E-07
  -5.555557      -38.88889      3.6557338E-07   1.534828     -1.3146273E-08
 -3.6533694E-07
  -5.555557      -27.77778      3.0987306E-07   1.527640     -1.3368805E-08
 -3.0958455E-07
  -5.555557      -16.66667      1.7885989E-07   1.495121     -1.3522323E-08
 -1.7834800E-07
  -5.555557      -5.555557      1.8244565E-07  -1.496155     -1.3605318E-08
  1.8193765E-07
  -5.555557       5.555557      2.1258771E-07  -1.506689     -1.3618996E-08
  2.1215102E-07
  -5.555557       16.66666      1.7332783E-07   1.492464     -1.3563227E-08
 -1.7279635E-07
  -5.555557       27.77778      3.0738272E-07   1.527070     -1.3436530E-08
 -3.0708890E-07
  -5.555557       38.88889      3.6481265E-07   1.534494     -1.3240629E-08
 -3.6457229E-07
  -5.555557       50.00000      3.8239770E-07   1.536855     -1.2976764E-08
 -3.8217746E-07
   5.555557      -50.00000      3.8338973E-07   1.537289     -1.2844009E-08
 -3.8317452E-07
   5.555557      -38.88889      3.6567803E-07   1.534875     -1.3132756E-08
 -3.6544213E-07
   5.555557      -27.77778      3.1033258E-07   1.527748     -1.3355186E-08
 -3.1004507E-07
   5.555557      -16.66667      1.8053903E-07   1.495902     -1.3508644E-08
 -1.8003294E-07
   5.555557      -5.555557      1.5265168E-07  -1.481642     -1.3591596E-08
  1.5204540E-07
   5.555557       5.555557      1.8278809E-07  -1.496295     -1.3605280E-08
  1.8228104E-07
   5.555557       16.66666      1.7501527E-07   1.493300     -1.3549534E-08
 -1.7448998E-07
   5.555557       27.77778      3.0784190E-07   1.527179     -1.3422916E-08
 -3.0754913E-07
   5.555557       38.88889      3.6491704E-07   1.534541     -1.3227101E-08
 -3.6467725E-07
   5.555557       50.00000      3.8249286E-07   1.536898     -1.2963428E-08
 -3.8227313E-07
   16.66666      -50.00000      3.8782062E-07   1.537883     -1.2762253E-08
 -3.8761058E-07
   16.66666      -38.88889      3.6682940E-07   1.535215     -1.3049636E-08
 -3.6659722E-07
   16.66666      -27.77778      3.4042858E-07   1.531801     -1.3271940E-08
 -3.4016978E-07
   16.66666      -16.66667      2.8002796E-07   1.522836     -1.3425075E-08
 -2.7970597E-07
   16.66666      -5.555557      1.8036791E-07   1.495831     -1.3508598E-08
 -1.7986133E-07
   16.66666       5.555557      1.7853041E-07   1.494982     -1.3522241E-08
 -1.7801757E-07
   16.66666       16.66666      2.7824444E-07   1.522382     -1.3465892E-08
 -2.7791842E-07
   16.66666       27.77778      3.3881366E-07   1.531415     -1.3339515E-08
 -3.3855096E-07
   16.66666       38.88889      3.6657281E-07   1.534932     -1.3143893E-08
 -3.6633708E-07
   16.66666       50.00000      3.8704010E-07   1.537508     -1.2881470E-08
 -3.8682569E-07
   27.77778      -50.00000      3.9386924E-07   1.538769     -1.2612495E-08
 -3.9366725E-07
   27.77778      -38.88889      3.7807234E-07   1.536672     -1.2899122E-08
 -3.7785225E-07
   27.77778      -27.77778      3.6577896E-07   1.534922     -1.3119156E-08
 -3.6554363E-07
   27.77778      -16.66667      3.4040605E-07   1.531798     -1.3271878E-08
 -3.4014721E-07
   27.77778      -5.555557      3.1025709E-07   1.527738     -1.3355052E-08
 -3.0996952E-07
   27.77778       5.555557      3.0975872E-07   1.527625     -1.3368629E-08
 -3.0947010E-07
   27.77778       16.66666      3.3943707E-07   1.531567     -1.3312418E-08
 -3.3917593E-07
   27.77778       27.77778      3.6523559E-07   1.534684     -1.3186551E-08
 -3.6499748E-07
   27.77778       38.88889      3.7726963E-07   1.536352     -1.2992231E-08
 -3.7704586E-07
   27.77778       50.00000      3.9328097E-07   1.538419     -1.2731360E-08
 -3.9307486E-07
   38.88889      -50.00000      3.9754286E-07   1.539612     -1.2395106E-08
 -3.9734957E-07
   38.88889      -38.88889      3.9129350E-07   1.538384     -1.2680585E-08
 -3.9108798E-07
   38.88889      -27.77778      3.7806646E-07   1.536671     -1.2899076E-08
 -3.7784633E-07
   38.88889      -16.66667      3.6683466E-07   1.535215     -1.3049520E-08
 -3.6660248E-07
   38.88889      -5.555557      3.6566669E-07   1.534875     -1.3132585E-08
 -3.6543079E-07
   38.88889       5.555557      3.6555804E-07   1.534827     -1.3146042E-08
 -3.6532160E-07
   38.88889       16.66666      3.6672466E-07   1.535095     -1.3089919E-08
 -3.6649098E-07
   38.88889       27.77778      3.7749331E-07   1.536443     -1.2965595E-08
 -3.7727057E-07
   38.88889       38.88889      3.9076573E-07   1.538103     -1.2773195E-08
 -3.9055692E-07
   38.88889       50.00000      3.9717312E-07   1.539285     -1.2513554E-08
 -3.9697593E-07
   50.00000      -50.00000      3.9825781E-07   1.540373     -1.2114581E-08
 -3.9807352E-07
   50.00000      -38.88889      3.9754289E-07   1.539612     -1.2395052E-08
 -3.9734962E-07
   50.00000      -27.77778      3.9386572E-07   1.538769     -1.2612412E-08
 -3.9366373E-07
   50.00000      -16.66667      3.8781025E-07   1.537882     -1.2762086E-08
 -3.8760021E-07
   50.00000      -5.555557      3.8337163E-07   1.537288     -1.2843775E-08
 -3.8315642E-07
   50.00000       5.555557      3.8327198E-07   1.537244     -1.2857065E-08
 -3.8305626E-07
   50.00000       16.66666      3.8754962E-07   1.537758     -1.2801819E-08
 -3.8733813E-07
   50.00000       27.77778      3.9353876E-07   1.538574     -1.2678423E-08
 -3.9333449E-07
   50.00000       38.88889      3.9725541E-07   1.539358     -1.2487160E-08
 -3.9705910E-07
   50.00000       50.00000      3.9784368E-07   1.540051     -1.2230041E-08
 -3.9765564E-07
           1           2          12          11
           2           3          13          12
           3           4          14          13
           4           5          15          14
           5           6          16          15
           6           7          17          16
           7           8          18          17
           8           9          19          18
           9          10          20          19
          11          12          22          21
          12          13          23          22
          13          14          24          23
          14          15          25          24
          15          16          26          25
          16          17          27          26
          17          18          28          27
          18          19          29          28
          19          20          30          29
          21          22          32          31
          22          23          33          32
          23          24          34          33
          24          25          35          34
          25          26          36          35
          26          27          37          36
          27          28          38          37
          28          29          39          38
          29          30          40          39
          31          32          42          41
          32          33          43          42
          33          34          44          43
          34          35          45          44
          35          36          46          45
          36          37          47          46
          37          38          48          47
          38          39          49          48
          39          40          50          49
          41          42          52          51
          42          43          53          52
          43          44          54          53
          44          45          55          54
          45          46          56          55
          46          47          57          56
          47          48          58          57
          48          49          59          58
          49          50          60          59
          51          52          62          61
          52          53          63          62
          53          54          64          63
          54          55          65          64
          55          56          66          65
          56          57          67          66
          57          58          68          67
          58          59          69          68
          59          60          70          69
          61          62          72          71
          62          63          73          72
          63          64          74          73
          64          65          75          74
          65          66          76          75
          66          67          77          76
          67          68          78          77
          68          69          79          78
          69          70          80          79
          71          72          82          81
          72          73          83          82
          73          74          84          83
          74          75          85          84
          75          76          86          85
          76          77          87          86
          77          78          88          87
          78          79          89          88
          79          80          90          89
          81          82          92          91
          82          83          93          92
          83          84          94          93
          84          85          95          94
          85          86          96          95
          86          87          97          96
          87          88          98          97
          88          89          99          98
          89          90         100          99
