 VARIABLES="X" "Y" "abs(eta) (m)" "angle(phi) (rad)" "PRE1" "PRE2"
ZONE N=    100 ,E =      81 ,F=FEPOINT,ET=QUADRILATERAL
  -50.00000      -50.00000      6.5184997E-07   1.539081     -2.0670040E-08
 -6.5152216E-07
  -50.00000      -38.88889      6.4273519E-07   1.527840     -2.7600851E-08
 -6.4214231E-07
  -50.00000      -27.77778      6.3199172E-07   1.518005     -3.3348194E-08
 -6.3111128E-07
  -50.00000      -16.66667      6.2053294E-07   1.510357     -3.7481964E-08
 -6.1939988E-07
  -50.00000      -5.555557      6.1623177E-07   1.505965     -3.9923002E-08
 -6.1493722E-07
  -50.00000       5.555557      6.1590964E-07   1.505281     -4.0322927E-08
 -6.1458826E-07
  -50.00000       16.66666      6.1961657E-07   1.508415     -3.8627167E-08
 -6.1841138E-07
  -50.00000       27.77778      6.3081984E-07   1.514999     -3.5179905E-08
 -6.2983810E-07
  -50.00000       38.88889      6.4168904E-07   1.523947     -3.0051861E-08
 -6.4098498E-07
  -50.00000       50.00000      6.5110527E-07   1.534720     -2.3484510E-08
 -6.5068161E-07
  -38.88889      -50.00000      6.4303413E-07   1.528953     -2.6899055E-08
 -6.4247126E-07
  -38.88889      -38.88889      6.2742362E-07   1.515844     -3.4460850E-08
 -6.2647655E-07
  -38.88889      -27.77778      6.1118487E-07   1.504099     -4.0734385E-08
 -6.0982592E-07
  -38.88889      -16.66667      5.8819296E-07   1.493787     -4.5251589E-08
 -5.8644969E-07
  -38.88889      -5.555557      5.7077870E-07   1.486961     -4.7795453E-08
 -5.6877406E-07
  -38.88889       5.555557      5.7022623E-07   1.486123     -4.8225104E-08
 -5.6818334E-07
  -38.88889       16.66666      5.8647186E-07   1.491430     -4.6497441E-08
 -5.8462570E-07
  -38.88889       27.77778      6.0922270E-07   1.500558     -4.2755296E-08
 -6.0772055E-07
  -38.88889       38.88889      6.2553511E-07   1.511497     -3.7071924E-08
 -6.2443564E-07
  -38.88889       50.00000      6.4168779E-07   1.523949     -3.0050394E-08
 -6.4098379E-07
  -27.77778      -50.00000      6.3292805E-07   1.520406     -3.1879722E-08
 -6.3212468E-07
  -27.77778      -38.88889      6.1196687E-07   1.505511     -3.9924284E-08
 -6.1066316E-07
  -27.77778      -27.77778      5.7245035E-07   1.489468     -4.6504837E-08
 -5.7055826E-07
  -27.77778      -16.66667      5.4478198E-07   1.476354     -5.1373789E-08
 -5.4235426E-07
  -27.77778      -5.555557      4.9355430E-07   1.461020     -5.4071787E-08
 -4.9058343E-07
  -27.77778       5.555557      4.9197411E-07   1.459742     -5.4523824E-08
 -4.8894344E-07
  -27.77778       16.66666      5.4166878E-07   1.473329     -5.2711467E-08
 -5.3909793E-07
  -27.77778       27.77778      5.6967502E-07   1.485288     -4.8652701E-08
 -5.6759364E-07
  -27.77778       38.88889      6.0921781E-07   1.500561     -4.2753534E-08
 -6.0771578E-07
  -27.77778       50.00000      6.3081410E-07   1.515003     -3.5176718E-08
 -6.2983253E-07
  -16.66667      -50.00000      6.2236171E-07   1.514230     -3.5186041E-08
 -6.2136627E-07
  -16.66667      -38.88889      5.9046880E-07   1.496912     -4.3586912E-08
 -5.8885786E-07
  -16.66667      -27.77778      5.4682988E-07   1.478351     -5.0480018E-08
 -5.4449487E-07
  -16.66667      -16.66667      4.2066387E-07   1.438590     -5.5452531E-08
 -4.1699292E-07
  -16.66667      -5.555557      2.6087750E-07   1.345531     -5.8270807E-08
 -2.5428642E-07
  -16.66667       5.555557      2.5548422E-07   1.338787     -5.8744408E-08
 -2.4863886E-07
  -16.66667       16.66666      4.1705763E-07   1.434039     -5.6858042E-08
 -4.1316369E-07
  -16.66667       27.77778      5.4163922E-07   1.473327     -5.2709577E-08
 -5.3906842E-07
  -16.66667       38.88889      5.8644792E-07   1.491433     -4.6493859E-08
 -5.8460199E-07
  -16.66667       50.00000      6.1960520E-07   1.508423     -3.8621607E-08
 -6.1840035E-07
  -5.555557      -50.00000      6.1881070E-07   1.511427     -3.6716845E-08
 -6.1772045E-07
  -5.555557      -38.88889      5.7412944E-07   1.491965     -4.5212339E-08
 -5.7234644E-07
  -5.555557      -27.77778      4.9976001E-07   1.466034     -5.2260454E-08
 -4.9702004E-07
  -5.555557      -16.66667      2.7143582E-07   1.358015     -5.7321746E-08
 -2.6531418E-07
  -5.555557      -5.555557      3.6029940E-07  -1.402996     -6.0175005E-08
  3.5523883E-07
  -5.555557       5.555557      4.1159686E-07  -1.422880     -6.0660035E-08
  4.0710236E-07
  -5.555557       16.66666      2.5522081E-07   1.338551     -5.8742387E-08
 -2.4836868E-07
  -5.555557       27.77778      4.9185155E-07   1.459722     -5.4519685E-08
 -4.8882055E-07
  -5.555557       38.88889      5.7023738E-07   1.486135     -4.8219267E-08
 -5.6819499E-07
  -5.555557       50.00000      6.1590157E-07   1.505291     -4.0315900E-08
 -6.1458064E-07
   5.555557      -50.00000      6.1913386E-07   1.512108     -3.6315143E-08
 -6.1806793E-07
   5.555557      -38.88889      5.7467304E-07   1.492794     -4.4780670E-08
 -5.7292561E-07
   5.555557      -27.77778      5.0128460E-07   1.467264     -5.1806634E-08
 -4.9860034E-07
   5.555557      -16.66667      2.7660786E-07   1.363810     -5.6846140E-08
 -2.7070357E-07
   5.555557      -5.555557      3.0978879E-07  -1.376912     -5.9687636E-08
  3.0398434E-07
   5.555557       5.555557      3.6094599E-07  -1.403306     -6.0172823E-08
  3.5589497E-07
   5.555557       16.66666      2.6035980E-07   1.345092     -5.8266743E-08
 -2.5375621E-07
   5.555557       27.77778      4.9337189E-07   1.460992     -5.4065818E-08
 -4.9040057E-07
   5.555557       38.88889      5.7078364E-07   1.486975     -4.7787946E-08
 -5.6877963E-07
   5.555557       50.00000      6.1622171E-07   1.505978     -3.9914255E-08
 -6.1492767E-07
   16.66666      -50.00000      6.2327325E-07   1.516161     -3.4035768E-08
 -6.2234324E-07
   16.66666      -38.88889      5.9216296E-07   1.499242     -4.2335721E-08
 -5.9064769E-07
   16.66666      -27.77778      5.4986606E-07   1.481316     -4.9136347E-08
 -5.4766622E-07
   16.66666      -16.66667      4.2409141E-07   1.443022     -5.4040829E-08
 -4.2063419E-07
   16.66666      -5.555557      2.7636165E-07   1.363630     -5.6844055E-08
 -2.7045243E-07
   16.66666       5.555557      2.7093481E-07   1.357631     -5.7317553E-08
 -2.6480251E-07
   16.66666       16.66666      4.2047384E-07   1.438545     -5.5446385E-08
 -4.1680204E-07
   16.66666       27.77778      5.4466619E-07   1.476349     -5.1365966E-08
 -5.4223869E-07
   16.66666       38.88889      5.8813441E-07   1.493795     -4.5242558E-08
 -5.8639165E-07
   16.66666       50.00000      6.2050947E-07   1.510371     -3.7471430E-08
 -6.1937703E-07
   27.77778      -50.00000      6.3409635E-07   1.523404     -3.0039946E-08
 -6.3338439E-07
   27.77778      -38.88889      6.1391717E-07   1.509031     -3.7894459E-08
 -6.1274653E-07
   27.77778      -27.77778      5.7520430E-07   1.493621     -4.4347264E-08
 -5.7349217E-07
   27.77778      -16.66667      5.4983906E-07   1.481315     -4.9134528E-08
 -5.4763927E-07
   27.77778      -5.555557      5.0116842E-07   1.467247     -5.1802697E-08
 -4.9848398E-07
   27.77778       5.555557      4.9958442E-07   1.466009     -5.2254588E-08
 -4.9684411E-07
   27.77778       16.66666      5.4671773E-07   1.478346     -5.0472227E-08
 -5.4438300E-07
   27.77778       27.77778      5.7242067E-07   1.489481     -4.6495330E-08
 -5.7052927E-07
   27.77778       38.88889      6.1115708E-07   1.504113     -4.0723876E-08
 -6.0979875E-07
   27.77778       50.00000      6.3197160E-07   1.518021     -3.3336949E-08
 -6.3109172E-07
   38.88889      -50.00000      6.4408391E-07   1.532846     -2.4437323E-08
 -6.4362013E-07
   38.88889      -38.88889      6.2929939E-07   1.520181     -3.1838468E-08
 -6.2849347E-07
   38.88889      -27.77778      6.1391273E-07   1.509034     -3.7892729E-08
 -6.1274216E-07
   38.88889      -16.66667      5.9214034E-07   1.499245     -4.2332100E-08
 -5.9062523E-07
   38.88889      -5.555557      5.7463114E-07   1.492798     -4.4774829E-08
 -5.7288406E-07
   38.88889       5.555557      5.7407703E-07   1.491972     -4.5204583E-08
 -5.7229448E-07
   38.88889       16.66666      5.9041150E-07   1.496920     -4.3577828E-08
 -5.8880107E-07
   38.88889       27.77778      6.1193998E-07   1.505525     -3.9913761E-08
 -6.1063690E-07
   38.88889       38.88889      6.2739883E-07   1.515860     -3.4449553E-08
 -6.2645233E-07
   38.88889       50.00000      6.4272450E-07   1.527859     -2.7588666E-08
 -6.4213214E-07
   50.00000      -50.00000      6.5259547E-07   1.543451     -1.7843112E-08
 -6.5235150E-07
   50.00000      -38.88889      6.4408277E-07   1.532848     -2.4435780E-08
 -6.4361910E-07
   50.00000      -27.77778      6.3409027E-07   1.523409     -3.0036738E-08
 -6.3337848E-07
   50.00000      -16.66667      6.2326069E-07   1.516168     -3.4030631E-08
 -6.2233096E-07
   50.00000      -5.555557      6.1912664E-07   1.512119     -3.6308119E-08
 -6.1806111E-07
   50.00000       5.555557      6.1880235E-07   1.511440     -3.6708002E-08
 -6.1771260E-07
   50.00000       16.66666      6.2233727E-07   1.514244     -3.5176004E-08
 -6.2134234E-07
   50.00000       27.77778      6.3290787E-07   1.520423     -3.1868417E-08
 -6.3210501E-07
   50.00000       38.88889      6.4302361E-07   1.528971     -2.6886848E-08
 -6.4246126E-07
   50.00000       50.00000      6.5183838E-07   1.539099     -2.0657751E-08
 -6.5151096E-07
           1           2          12          11
           2           3          13          12
           3           4          14          13
           4           5          15          14
           5           6          16          15
           6           7          17          16
           7           8          18          17
           8           9          19          18
           9          10          20          19
          11          12          22          21
          12          13          23          22
          13          14          24          23
          14          15          25          24
          15          16          26          25
          16          17          27          26
          17          18          28          27
          18          19          29          28
          19          20          30          29
          21          22          32          31
          22          23          33          32
          23          24          34          33
          24          25          35          34
          25          26          36          35
          26          27          37          36
          27          28          38          37
          28          29          39          38
          29          30          40          39
          31          32          42          41
          32          33          43          42
          33          34          44          43
          34          35          45          44
          35          36          46          45
          36          37          47          46
          37          38          48          47
          38          39          49          48
          39          40          50          49
          41          42          52          51
          42          43          53          52
          43          44          54          53
          44          45          55          54
          45          46          56          55
          46          47          57          56
          47          48          58          57
          48          49          59          58
          49          50          60          59
          51          52          62          61
          52          53          63          62
          53          54          64          63
          54          55          65          64
          55          56          66          65
          56          57          67          66
          57          58          68          67
          58          59          69          68
          59          60          70          69
          61          62          72          71
          62          63          73          72
          63          64          74          73
          64          65          75          74
          65          66          76          75
          66          67          77          76
          67          68          78          77
          68          69          79          78
          69          70          80          79
          71          72          82          81
          72          73          83          82
          73          74          84          83
          74          75          85          84
          75          76          86          85
          76          77          87          86
          77          78          88          87
          78          79          89          88
          79          80          90          89
          81          82          92          91
          82          83          93          92
          83          84          94          93
          84          85          95          94
          85          86          96          95
          86          87          97          96
          87          88          98          97
          88          89          99          98
          89          90         100          99
