 VARIABLES="X" "Y" "abs(eta) (m)" "angle(phi) (rad)" "PRE1" "PRE2"
ZONE N=    100 ,E =      81 ,F=FEPOINT,ET=QUADRILATERAL
  -50.00000      -50.00000      1.4774209E-03  -1.716846      2.1501127E-04
  1.4616917E-03
  -50.00000      -38.88889      1.8027313E-03  -2.374127      1.2973761E-03
  1.2516610E-03
  -50.00000      -27.77778      1.9855024E-03  -2.890799      1.9233878E-03
  4.9274717E-04
  -50.00000      -16.66667      2.0553430E-03   3.014027      2.0386425E-03
 -2.6147978E-04
  -50.00000      -5.555557      2.0721755E-03   2.805849      1.9564768E-03
 -6.8272260E-04
  -50.00000       5.555557      2.0721774E-03   2.805825      1.9564624E-03
 -6.8276952E-04
  -50.00000       16.66666      2.0553516E-03   3.013961      2.0386337E-03
 -2.6161619E-04
  -50.00000       27.77778      1.9855304E-03  -2.890900      1.9234642E-03
  4.9256044E-04
  -50.00000       38.88889      1.8027902E-03  -2.374256      1.2975798E-03
  1.2515347E-03
  -50.00000       50.00000      1.4775100E-03  -1.717016      2.1527207E-04
  1.4617434E-03
  -38.88889      -50.00000      1.7984679E-03  -2.374702      1.2950266E-03
  1.2479556E-03
  -38.88889      -38.88889      2.0211763E-03  -3.075373      2.0167464E-03
  1.3374450E-04
  -38.88889      -27.77778      2.0690963E-03   2.582554      1.7541077E-03
 -1.0973904E-03
  -38.88889      -16.66667      2.0426388E-03   2.070991      9.7964227E-04
 -1.7923936E-03
  -38.88889      -5.555557      2.0215504E-03   1.768114      3.9630369E-04
 -1.9823243E-03
  -38.88889       5.555557      2.0215476E-03   1.768077      3.9623072E-04
 -1.9823359E-03
  -38.88889       16.66666      2.0426305E-03   2.070894      9.7946392E-04
 -1.7924815E-03
  -38.88889       27.77778      2.0690938E-03   2.582424      1.7539629E-03
 -1.0976169E-03
  -38.88889       38.88889      2.0212051E-03  -3.075524      2.0167953E-03
  1.3344176E-04
  -38.88889       50.00000      1.7985423E-03  -2.374869      1.2952874E-03
  1.2477922E-03
  -27.77778      -50.00000      1.9752032E-03  -2.891459      1.9137334E-03
  4.8892951E-04
  -27.77778      -38.88889      2.0620923E-03   2.582595      1.7482148E-03
 -1.0936038E-03
  -27.77778      -27.77778      2.0119774E-03   1.768323      3.9484043E-04
 -1.9728544E-03
  -27.77778      -16.66667      2.0110544E-03   1.020972     -1.0508508E-03
 -1.7146580E-03
  -27.77778      -5.555557      2.0845041E-03  0.5510719     -1.7759219E-03
 -1.0914480E-03
  -27.77778       5.555557      2.0845158E-03  0.5510122     -1.7759971E-03
 -1.0913480E-03
  -27.77778       16.66666      2.0110616E-03   1.020819     -1.0511165E-03
 -1.7145036E-03
  -27.77778       27.77778      2.0119611E-03   1.768141      3.9447733E-04
 -1.9729102E-03
  -27.77778       38.88889      2.0620876E-03   2.582413      1.7480120E-03
 -1.0939193E-03
  -27.77778       50.00000      1.9752523E-03  -2.891640      1.9138694E-03
  4.8859511E-04
  -16.66667      -50.00000      2.0377098E-03   3.013634      2.0210503E-03
 -2.6003234E-04
  -16.66667      -38.88889      2.0254345E-03   2.071351      9.7203051E-04
 -1.7769474E-03
  -16.66667      -27.77778      1.9980627E-03   1.020643     -1.0446222E-03
 -1.7032378E-03
  -16.66667      -16.66667      2.2524912E-03 -5.0086146E-03 -2.2524630E-03
  1.1281813E-05
  -16.66667      -5.555557      2.6846214E-03 -0.6977218     -2.0572464E-03
  1.7247982E-03
  -16.66667       5.555557      2.6847112E-03 -0.6978191     -2.0571477E-03
  1.7250561E-03
  -16.66667       16.66666      2.2525818E-03 -5.2268910E-03 -2.2525510E-03
  1.1773946E-05
  -16.66667       27.77778      1.9980734E-03   1.020390     -1.0450599E-03
 -1.7029820E-03
  -16.66667       38.88889      2.0254126E-03   2.071125      9.7161788E-04
 -1.7771479E-03
  -16.66667       50.00000      2.0377317E-03   3.013436      2.0210205E-03
 -2.6043554E-04
  -5.555557      -50.00000      2.0467083E-03   2.805669      1.9323102E-03
 -6.7467935E-04
  -5.555557      -38.88889      1.9928108E-03   1.768631      3.9167944E-04
 -1.9539401E-03
  -5.555557      -27.77778      2.0533854E-03  0.5490839     -1.7515438E-03
 -1.0716741E-03
  -5.555557      -16.66667      2.6543699E-03 -0.7015425     -2.0275339E-03
  1.7131215E-03
  -5.555557      -5.555557      4.3517640E-03  -1.816003      1.0564220E-03
  4.2215902E-03
  -5.555557       5.555557      4.3524960E-03  -1.816231      1.0575590E-03
  4.2220601E-03
  -5.555557       16.66666      2.6546349E-03 -0.7018375     -2.0272308E-03
  1.7138908E-03
  -5.555557       27.77778      2.0534392E-03  0.5487846     -1.7519104E-03
 -1.0711779E-03
  -5.555557       38.88889      1.9927835E-03   1.768375      3.9117469E-04
 -1.9540135E-03
  -5.555557       50.00000      2.0467173E-03   2.805456      1.9321751E-03
 -6.7509367E-04
   5.555557      -50.00000      2.0403378E-03   2.805599      1.9262487E-03
 -6.7271380E-04
   5.555557      -38.88889      1.9832184E-03   1.768766      3.9005672E-04
 -1.9444821E-03
   5.555557      -27.77778      2.0378258E-03  0.5480042     -1.7394188E-03
 -1.0616761E-03
   5.555557      -16.66667      2.6242191E-03 -0.7055637     -1.9976767E-03
  1.7017091E-03
   5.555557      -5.555557      4.2199898E-03  -1.834489      1.0999286E-03
  4.0741223E-03
   5.555557       5.555557      4.2206333E-03  -1.834727      1.1010673E-03
  4.0744813E-03
   5.555557       16.66666      2.6244789E-03 -0.7058595     -1.9973710E-03
  1.7024684E-03
   5.555557       27.77778      2.0378791E-03  0.5477042     -1.7397827E-03
 -1.0611820E-03
   5.555557       38.88889      1.9831897E-03   1.768510      3.8955358E-04
 -1.9445537E-03
   5.555557       50.00000      2.0403443E-03   2.805386      1.9261114E-03
 -6.7312660E-04
   16.66666      -50.00000      2.0200668E-03   3.013162      2.0034297E-03
 -2.5872618E-04
   16.66666      -38.88889      1.9995931E-03   2.071796      9.6040964E-04
 -1.7538489E-03
   16.66666      -27.77778      1.9590554E-03   1.019462     -1.0262012E-03
 -1.6687748E-03
   16.66666      -16.66667      2.1934097E-03 -1.1282070E-02 -2.1932700E-03
  2.4745676E-05
   16.66666      -5.555557      2.5941683E-03 -0.7097908     -1.9676720E-03
  1.6905548E-03
   16.66666       5.555557      2.5942519E-03 -0.7098897     -1.9675684E-03
  1.6908039E-03
   16.66666       16.66666      2.1934947E-03 -1.1501817E-02 -2.1933496E-03
  2.5228619E-05
   16.66666       27.77778      1.9590613E-03   1.019207     -1.0266297E-03
 -1.6685179E-03
   16.66666       38.88889      1.9995682E-03   2.071568      9.5999899E-04
 -1.7540454E-03
   16.66666       50.00000      2.0200843E-03   3.012964      2.0033959E-03
 -2.5912499E-04
   27.77778      -50.00000      1.9494576E-03  -2.893242      1.8896465E-03
  4.7918787E-04
   27.77778      -38.88889      2.0270231E-03   2.582671      1.7185657E-03
 -1.0748743E-03
   27.77778      -27.77778      1.9640173E-03   1.768997      3.8672649E-04
 -1.9255665E-03
   27.77778      -16.66667      1.9460410E-03   1.019004     -1.0201432E-03
 -1.6572217E-03
   27.77778      -5.555557      2.0067047E-03  0.5456702     -1.7152904E-03
 -1.0414617E-03
   27.77778       5.555557      2.0067128E-03  0.5456100     -1.7153601E-03
 -1.0413628E-03
   27.77778       16.66666      1.9460432E-03   1.018849     -1.0204002E-03
 -1.6570659E-03
   27.77778       27.77778      1.9639933E-03   1.768815      3.8637011E-04
 -1.9256136E-03
   27.77778       38.88889      2.0270182E-03   2.582489      1.7183662E-03
 -1.0751839E-03
   27.77778       50.00000      1.9495054E-03  -2.893422      1.8897792E-03
  4.7885897E-04
   38.88889      -50.00000      1.7686585E-03  -2.378949      1.2787612E-03
  1.2218521E-03
   38.88889      -38.88889      1.9816863E-03  -3.077270      1.9775883E-03
  1.2738036E-04
   38.88889      -27.77778      2.0200009E-03   2.582660      1.7126009E-03
 -1.0711683E-03
   38.88889      -16.66667      1.9823392E-03   2.072029      9.5252733E-04
 -1.7384937E-03
   38.88889      -5.555557      1.9544028E-03   1.769057      3.8494758E-04
 -1.9161173E-03
   38.88889       5.555557      1.9543974E-03   1.769020      3.8487656E-04
 -1.9161261E-03
   38.88889       16.66666      1.9823271E-03   2.071931      9.5235108E-04
 -1.7385766E-03
   38.88889       27.77778      2.0199975E-03   2.582531      1.7124594E-03
 -1.0713884E-03
   38.88889       38.88889      1.9817133E-03  -3.077420      1.9776342E-03
  1.2708482E-04
   38.88889       50.00000      1.7687328E-03  -2.379114      1.2790170E-03
  1.2216921E-03
   50.00000      -50.00000      1.4455429E-03  -1.724850      2.2181128E-04
  1.4284236E-03
   50.00000      -38.88889      1.7644062E-03  -2.379586      1.2764630E-03
  1.2181016E-03
   50.00000      -27.77778      1.9391596E-03  -2.894008      1.8800293E-03
  4.7521552E-04
   50.00000      -16.66667      2.0024083E-03   3.012613      1.9857755E-03
 -2.5755525E-04
   50.00000      -5.555557      2.0148307E-03   2.805220      1.9019159E-03
 -6.6502520E-04
   50.00000       5.555557      2.0148319E-03   2.805197      1.9019014E-03
 -6.6507020E-04
   50.00000       16.66666      2.0024127E-03   3.012547      1.9857627E-03
 -2.5768709E-04
   50.00000       27.77778      1.9391858E-03  -2.894108      1.8801022E-03
  4.7503394E-04
   50.00000       38.88889      1.7644637E-03  -2.379714      1.2766608E-03
  1.2179775E-03
   50.00000       50.00000      1.4456322E-03  -1.725019      2.2206600E-04
  1.4284744E-03
           1           2          12          11
           2           3          13          12
           3           4          14          13
           4           5          15          14
           5           6          16          15
           6           7          17          16
           7           8          18          17
           8           9          19          18
           9          10          20          19
          11          12          22          21
          12          13          23          22
          13          14          24          23
          14          15          25          24
          15          16          26          25
          16          17          27          26
          17          18          28          27
          18          19          29          28
          19          20          30          29
          21          22          32          31
          22          23          33          32
          23          24          34          33
          24          25          35          34
          25          26          36          35
          26          27          37          36
          27          28          38          37
          28          29          39          38
          29          30          40          39
          31          32          42          41
          32          33          43          42
          33          34          44          43
          34          35          45          44
          35          36          46          45
          36          37          47          46
          37          38          48          47
          38          39          49          48
          39          40          50          49
          41          42          52          51
          42          43          53          52
          43          44          54          53
          44          45          55          54
          45          46          56          55
          46          47          57          56
          47          48          58          57
          48          49          59          58
          49          50          60          59
          51          52          62          61
          52          53          63          62
          53          54          64          63
          54          55          65          64
          55          56          66          65
          56          57          67          66
          57          58          68          67
          58          59          69          68
          59          60          70          69
          61          62          72          71
          62          63          73          72
          63          64          74          73
          64          65          75          74
          65          66          76          75
          66          67          77          76
          67          68          78          77
          68          69          79          78
          69          70          80          79
          71          72          82          81
          72          73          83          82
          73          74          84          83
          74          75          85          84
          75          76          86          85
          76          77          87          86
          77          78          88          87
          78          79          89          88
          79          80          90          89
          81          82          92          91
          82          83          93          92
          83          84          94          93
          84          85          95          94
          85          86          96          95
          86          87          97          96
          87          88          98          97
          88          89          99          98
          89          90         100          99
