 VARIABLES="X" "Y" "abs(eta) (m)" "angle(phi) (rad)" "PRE1" "PRE2"
ZONE N=    100 ,E =      81 ,F=FEPOINT,ET=QUADRILATERAL
  -50.00000      -50.00000      2.0310956E-05  0.4084110     -1.8640441E-05
 -8.0665268E-06
  -50.00000      -38.88889      1.8481904E-05  0.1597454     -1.8246588E-05
 -2.9398582E-06
  -50.00000      -27.77778      1.4800129E-05 -6.5837070E-02 -1.4768065E-05
  9.7369332E-07
  -50.00000      -16.66667      1.0082114E-05 -0.2230912     -9.8322616E-06
  2.2306197E-06
  -50.00000      -5.555557      3.4088282E-06 -0.4273640     -3.1022432E-06
  1.4128683E-06
  -50.00000       5.555557      3.9557021E-06   3.027471      3.9299707E-06
 -4.5045320E-07
  -50.00000       16.66666      1.0596269E-05   3.024344      1.0523518E-05
 -1.2395507E-06
  -50.00000       27.77778      1.5207876E-05  -3.138450      1.5207800E-05
  4.7789523E-08
  -50.00000       38.88889      1.8772313E-05  -2.930251      1.8354634E-05
  3.9379056E-06
  -50.00000       50.00000      2.0451598E-05  -2.688294      1.8386136E-05
  8.9564419E-06
  -38.88889      -50.00000      2.3800309E-05  0.1656011     -2.3474708E-05
 -3.9233669E-06
  -38.88889      -38.88889      2.1934085E-05 -0.1315338     -2.1744616E-05
  2.8767627E-06
  -38.88889      -27.77778      1.9194606E-05 -0.3821406     -1.7810071E-05
  7.1578124E-06
  -38.88889      -16.66667      1.3785114E-05 -0.5707203     -1.1600339E-05
  7.4472468E-06
  -38.88889      -5.555557      4.9418095E-06 -0.7847603     -3.4966151E-06
  3.4921572E-06
  -38.88889       5.555557      5.6953486E-06   2.620496      4.9394248E-06
 -2.8353265E-06
  -38.88889       16.66666      1.4511431E-05   2.662695      1.2878942E-05
 -6.6868884E-06
  -38.88889       27.77778      1.9793919E-05   2.820400      1.8781649E-05
 -6.2489084E-06
  -38.88889       38.88889      2.2386625E-05   3.057984      2.2308424E-05
 -1.8695331E-06
  -38.88889       50.00000      2.4092551E-05  -2.935956      2.3584951E-05
  4.9194650E-06
  -27.77778      -50.00000      2.6790431E-05 -5.0057292E-02 -2.6756872E-05
  1.3404964E-06
  -27.77778      -38.88889      2.6983425E-05 -0.3730870     -2.5127143E-05
  9.8352366E-06
  -27.77778      -27.77778      2.5986359E-05 -0.6700413     -2.0368005E-05
  1.6138007E-05
  -27.77778      -16.66667      2.1099080E-05 -0.9030882     -1.3064297E-05
  1.6567901E-05
  -27.77778      -5.555557      9.0364538E-06  -1.136044     -3.8060291E-06
  8.1958306E-06
  -27.77778       5.555557      9.9757563E-06   2.190131      5.7908619E-06
 -8.1229073E-06
  -27.77778       16.66666      2.2026967E-05   2.311360      1.4861684E-05
 -1.6257849E-05
  -27.77778       27.77778      2.6759393E-05   2.523786      2.1812944E-05
 -1.5500342E-05
  -27.77778       38.88889      2.7588339E-05   2.811771      2.6101330E-05
 -8.9351588E-06
  -27.77778       50.00000      2.7202554E-05   3.129567      2.7200587E-05
 -3.2711725E-07
  -16.66667      -50.00000      3.0717551E-05 -0.1864372     -3.0185243E-05
  5.6937747E-06
  -16.66667      -38.88889      3.2612650E-05 -0.5432575     -2.7917386E-05
  1.6858367E-05
  -16.66667      -27.77778      3.5445701E-05 -0.8877540     -2.2371756E-05
  2.7493676E-05
  -16.66667      -16.66667      3.6127378E-05  -1.167822     -1.4167590E-05
  3.3233518E-05
  -16.66667      -5.555557      2.5822746E-05  -1.413056     -4.0564200E-06
  2.5502151E-05
  -16.66667       5.555557      2.7131469E-05   1.810608      6.4442493E-06
 -2.6355043E-05
  -16.66667       16.66666      3.7336096E-05   2.024153      1.6352662E-05
 -3.3564484E-05
  -16.66667       27.77778      3.6402464E-05   2.296989      2.4172254E-05
 -2.7218402E-05
  -16.66667       38.88889      3.3356551E-05   2.637105      2.9201070E-05
 -1.6123184E-05
  -16.66667       50.00000      3.1241292E-05   2.989974      3.0882889E-05
 -4.7186250E-06
  -5.555557      -50.00000      3.2458302E-05 -0.2762681     -3.1227486E-05
  8.8535589E-06
  -5.555557      -38.88889      3.6517118E-05 -0.6620853     -2.8801489E-05
  2.2449369E-05
  -5.555557      -27.77778      4.6811765E-05  -1.057227     -2.2998134E-05
  4.0772873E-05
  -5.555557      -16.66667      7.8575671E-05  -1.384489     -1.4554712E-05
  7.7215911E-05
  -5.555557      -5.555557      2.3818440E-04  -1.553083     -4.2188331E-06
  2.3814703E-04
  -5.555557       5.555557      2.4194903E-04   1.598997      6.8223453E-06
 -2.4185283E-04
  -5.555557       16.66666      8.0102523E-05   1.783968      1.6946535E-05
 -7.8289391E-05
  -5.555557       27.77778      4.7867634E-05   2.120007      2.4987596E-05
 -4.0828061E-05
  -5.555557       38.88889      3.7315804E-05   2.516135      3.0251751E-05
 -2.1847212E-05
  -5.555557       50.00000      3.3027150E-05   2.899488      3.2063930E-05
 -7.9181473E-06
   5.555557      -50.00000      3.2456774E-05 -0.2762004     -3.1226617E-05
  8.8510269E-06
   5.555557      -38.88889      3.6511752E-05 -0.6619352     -2.8800625E-05
  2.2441747E-05
   5.555557      -27.77778      4.6787001E-05  -1.056950     -2.2997217E-05
  4.0744955E-05
   5.555557      -16.66667      7.8398189E-05  -1.384078     -1.4553483E-05
  7.7035525E-05
   5.555557      -5.555557      2.3793084E-04  -1.553069     -4.2177462E-06
  2.3789346E-04
   5.555557       5.555557      2.4255208E-04   1.598937      6.8246463E-06
 -2.4245605E-04
   5.555557       16.66666      8.0226266E-05   1.783650      1.6947812E-05
 -7.8415724E-05
   5.555557       27.77778      4.7895483E-05   2.119692      2.4989260E-05
 -4.0859690E-05
   5.555557       38.88889      3.7322261E-05   2.515960      3.0253143E-05
 -2.1856315E-05
   5.555557       50.00000      3.3028733E-05   2.899394      3.2064723E-05
 -7.9215388E-06
   16.66666      -50.00000      3.0714327E-05 -0.1862712     -3.0183019E-05
  5.6881659E-06
   16.66666      -38.88889      3.2602282E-05 -0.5429146     -2.7914288E-05
  1.6843438E-05
   16.66666      -27.77778      3.5411143E-05 -0.8870552     -2.2369135E-05
  2.7451246E-05
   16.66666      -16.66667      3.6012952E-05  -1.166577     -1.4163928E-05
  3.3110660E-05
   16.66666      -5.555557      2.5345536E-05  -1.410244     -4.0518298E-06
  2.5019570E-05
   16.66666       5.555557      2.7538965E-05   1.807133      6.4480478E-06
 -2.6773443E-05
   16.66666       16.66666      3.7467678E-05   2.022554      1.6356420E-05
 -3.3708966E-05
   16.66666       27.77778      3.6442059E-05   2.296151      2.4175708E-05
 -2.7268277E-05
   16.66666       38.88889      3.3368306E-05   2.636669      2.9204317E-05
 -1.6141612E-05
   16.66666       50.00000      3.1245378E-05   2.989759      3.0885913E-05
 -4.7258882E-06
   27.77778      -50.00000      2.6786656E-05 -4.9781401E-02 -2.6753472E-05
  1.3329266E-06
   27.77778      -38.88889      2.6973010E-05 -0.3725381     -2.5122838E-05
  9.8176515E-06
   27.77778      -27.77778      2.5958168E-05 -0.6689990     -2.0362701E-05
  1.6099284E-05
   27.77778      -16.66667      2.1037817E-05 -0.9011621     -1.3058157E-05
  1.6494674E-05
   27.77778      -5.555557      8.9007453E-06  -1.129671     -3.8002354E-06
  8.0486943E-06
   27.77778       5.555557      1.0102573E-05   2.181970      5.7971511E-06
 -8.2737542E-06
   27.77778       16.66666      2.2091241E-05   2.309127      1.4868606E-05
 -1.6338528E-05
   27.77778       27.77778      2.6789945E-05   2.522576      2.1819053E-05
 -1.5544456E-05
   27.77778       38.88889      2.7599961E-05   2.811125      2.6106549E-05
 -8.9557780E-06
   27.77778       50.00000      2.7207341E-05   3.129207      2.7205255E-05
 -3.3696651E-07
   38.88889      -50.00000      2.3798386E-05  0.1658581     -2.3471801E-05
 -3.9290840E-06
   38.88889      -38.88889      2.1927934E-05 -0.1309525     -2.1740187E-05
  2.8633176E-06
   38.88889      -27.77778      1.9179408E-05 -0.3810656     -1.7803646E-05
  7.1330105E-06
   38.88889      -16.66667      1.3758902E-05 -0.5687373     -1.1592999E-05
  7.4101126E-06
   38.88889      -5.555557      4.8959596E-06 -0.7775629     -3.4889852E-06
  3.4347349E-06
   38.88889       5.555557      5.7315219E-06   2.612283      4.9471978E-06
 -2.8940594E-06
   38.88889       16.66666      1.4537106E-05   2.660479      1.2886855E-05
 -6.7272886E-06
   38.88889       27.77778      1.9809868E-05   2.819150      1.8788949E-05
 -6.2774393E-06
   38.88889       38.88889      2.2394819E-05   3.057302      2.2315309E-05
 -1.8854365E-06
   38.88889       50.00000      2.4098428E-05  -2.936271      2.3592251E-05
  4.9132459E-06
   50.00000      -50.00000      2.0308467E-05  0.4086198     -1.8636474E-05
 -8.0694299E-06
   50.00000      -38.88889      1.8478851E-05  0.1601681     -1.8242332E-05
 -2.9470837E-06
   50.00000      -27.77778      1.4792927E-05 -6.4906068E-02 -1.4761777E-05
  9.5947667E-07
   50.00000      -16.66667      1.0070390E-05 -0.2214643     -9.8244391E-06
  2.2120457E-06
   50.00000      -5.555557      3.3907102E-06 -0.4213402     -3.0941642E-06
  1.3867455E-06
   50.00000       5.555557      3.9672518E-06   3.021051      3.9384640E-06
 -4.7706288E-07
   50.00000       16.66666      1.0607152E-05   3.022519      1.0532044E-05
 -1.2600474E-06
   50.00000       27.77778      1.5215873E-05  -3.139536      1.5215841E-05
  3.1298264E-08
   50.00000       38.88889      1.8779570E-05  -2.930754      1.8363709E-05
  3.9301935E-06
   50.00000       50.00000      2.0454638E-05  -2.688637      1.8391942E-05
  8.9514624E-06
           1           2          12          11
           2           3          13          12
           3           4          14          13
           4           5          15          14
           5           6          16          15
           6           7          17          16
           7           8          18          17
           8           9          19          18
           9          10          20          19
          11          12          22          21
          12          13          23          22
          13          14          24          23
          14          15          25          24
          15          16          26          25
          16          17          27          26
          17          18          28          27
          18          19          29          28
          19          20          30          29
          21          22          32          31
          22          23          33          32
          23          24          34          33
          24          25          35          34
          25          26          36          35
          26          27          37          36
          27          28          38          37
          28          29          39          38
          29          30          40          39
          31          32          42          41
          32          33          43          42
          33          34          44          43
          34          35          45          44
          35          36          46          45
          36          37          47          46
          37          38          48          47
          38          39          49          48
          39          40          50          49
          41          42          52          51
          42          43          53          52
          43          44          54          53
          44          45          55          54
          45          46          56          55
          46          47          57          56
          47          48          58          57
          48          49          59          58
          49          50          60          59
          51          52          62          61
          52          53          63          62
          53          54          64          63
          54          55          65          64
          55          56          66          65
          56          57          67          66
          57          58          68          67
          58          59          69          68
          59          60          70          69
          61          62          72          71
          62          63          73          72
          63          64          74          73
          64          65          75          74
          65          66          76          75
          66          67          77          76
          67          68          78          77
          68          69          79          78
          69          70          80          79
          71          72          82          81
          72          73          83          82
          73          74          84          83
          74          75          85          84
          75          76          86          85
          76          77          87          86
          77          78          88          87
          78          79          89          88
          79          80          90          89
          81          82          92          91
          82          83          93          92
          83          84          94          93
          84          85          95          94
          85          86          96          95
          86          87          97          96
          87          88          98          97
          88          89          99          98
          89          90         100          99
