 VARIABLES="X" "Y" "abs(eta) (m)" "angle(phi) (rad)" "PRE1" "PRE2"
ZONE N=    100 ,E =      81 ,F=FEPOINT,ET=QUADRILATERAL
  -50.00000      -50.00000      1.1960089E-04  -1.147561     -4.9121532E-05
  1.0904791E-04
  -50.00000      -38.88889      1.4791884E-04  -1.335569     -3.4474539E-05
  1.4384536E-04
  -50.00000      -27.77778      1.7309126E-04  -1.473890     -1.6747330E-05
  1.7227916E-04
  -50.00000      -16.66667      1.9206890E-04  -1.571088      5.5999276E-08
  1.9206888E-04
  -50.00000      -5.555557      2.0272477E-04  -1.615682      9.0964886E-06
  2.0252058E-04
  -50.00000       5.555557      2.0272599E-04  -1.615688      9.0975700E-06
  2.0252175E-04
  -50.00000       16.66666      1.9207278E-04  -1.571105      5.9186792E-08
  1.9207277E-04
  -50.00000       27.77778      1.7309688E-04  -1.473917     -1.6743315E-05
  1.7228520E-04
  -50.00000       38.88889      1.4792554E-04  -1.335604     -3.4471035E-05
  1.4385310E-04
  -50.00000       50.00000      1.1960783E-04  -1.147611     -4.9118946E-05
  1.0905669E-04
  -38.88889      -50.00000      1.4782356E-04  -1.336374     -3.4336692E-05
  1.4378039E-04
  -38.88889      -38.88889      1.8217569E-04  -1.522609     -8.7751223E-06
  1.8196422E-04
  -38.88889      -27.77778      2.1401753E-04  -1.665082      2.0148975E-05
  2.1306695E-04
  -38.88889      -16.66667      2.4011522E-04  -1.779905      4.9844974E-05
  2.3488465E-04
  -38.88889      -5.555557      2.5553058E-04  -1.846135      6.9471796E-05
  2.4590557E-04
  -38.88889       5.555557      2.5553256E-04  -1.846140      6.9473695E-05
  2.4590708E-04
  -38.88889       16.66666      2.4012120E-04  -1.779925      4.9851038E-05
  2.3488946E-04
  -38.88889       27.77778      2.1402528E-04  -1.665110      2.0155698E-05
  2.1307409E-04
  -38.88889       38.88889      1.8218419E-04  -1.522647     -8.7686558E-06
  1.8197304E-04
  -38.88889       50.00000      1.4783219E-04  -1.336420     -3.4332043E-05
  1.4379036E-04
  -27.77778      -50.00000      1.7286437E-04  -1.475440     -1.6458769E-05
  1.7207905E-04
  -27.77778      -38.88889      2.1386790E-04  -1.665896      2.0308154E-05
  2.1290152E-04
  -27.77778      -27.77778      2.5535084E-04  -1.847017      6.9639653E-05
  2.4567125E-04
  -27.77778      -16.66667      2.9188636E-04  -1.965836      1.1233104E-04
  2.6940563E-04
  -27.77778      -5.555557      3.2097273E-04  -2.070315      1.5374694E-04
  2.8175410E-04
  -27.77778       5.555557      3.2097823E-04  -2.070326      1.5375268E-04
  2.8175724E-04
  -27.77778       16.66666      2.9189690E-04  -1.965863      1.1234223E-04
  2.6941235E-04
  -27.77778       27.77778      2.5536036E-04  -1.847045      6.9649264E-05
  2.4567844E-04
  -27.77778       38.88889      2.1387851E-04  -1.665936      2.0317580E-05
  2.1291127E-04
  -27.77778       50.00000      1.7287450E-04  -1.475487     -1.6451584E-05
  1.7208992E-04
  -16.66667      -50.00000      1.9168093E-04  -1.573442      5.0707541E-07
  1.9168026E-04
  -16.66667      -38.88889      2.3971664E-04  -1.781653      5.0172064E-05
  2.3440740E-04
  -16.66667      -27.77778      2.9156142E-04  -1.966954      1.1250660E-04
  2.6898016E-04
  -16.66667      -16.66667      3.5992489E-04  -2.190742      2.0911322E-04
  2.9294638E-04
  -16.66667      -5.555557      4.3648158E-04  -2.358672      3.0940271E-04
  3.0787359E-04
  -16.66667       5.555557      4.3650152E-04  -2.358688      3.0942200E-04
  3.0788247E-04
  -16.66667       16.66666      3.5994218E-04  -2.190762      2.0912898E-04
  2.9295636E-04
  -16.66667       27.77778      2.9157873E-04  -1.966998      1.1252517E-04
  2.6899116E-04
  -16.66667       38.88889      2.3973061E-04  -1.781700      5.0186150E-05
  2.3441868E-04
  -16.66667       50.00000      1.9169251E-04  -1.573491      5.1664603E-07
  1.9169181E-04
  -5.555557      -50.00000      2.0220564E-04  -1.618917      9.7264719E-06
  2.0197158E-04
  -5.555557      -38.88889      2.5499743E-04  -1.848800      6.9980524E-05
  2.4520687E-04
  -5.555557      -27.77778      3.2001716E-04  -2.073213      1.5410276E-04
  2.8046983E-04
  -5.555557      -16.66667      4.3505765E-04  -2.362572      3.0958804E-04
  3.0566388E-04
  -5.555557      -5.555557      7.5616915E-04  -2.694002      6.8168069E-04
  3.2726626E-04
  -5.555557       5.555557      7.5632392E-04  -2.694047      6.8183499E-04
  3.2730249E-04
  -5.555557       16.66666      4.3511792E-04  -2.362624      3.0964668E-04
  3.0569025E-04
  -5.555557       27.77778      3.2004461E-04  -2.073268      1.5413134E-04
  2.8048543E-04
  -5.555557       38.88889      2.5501114E-04  -1.848839      6.9994021E-05
  2.4521729E-04
  -5.555557       50.00000      2.0221771E-04  -1.618962      9.7362426E-06
  2.0198319E-04
   5.555557      -50.00000      2.0207763E-04  -1.619733      9.8851033E-06
  2.0183570E-04
   5.555557      -38.88889      2.5482208E-04  -1.849695      7.0151742E-05
  2.4497556E-04
   5.555557      -27.77778      3.1954577E-04  -2.074680      1.5428639E-04
  2.7983068E-04
   5.555557      -16.66667      4.3366104E-04  -2.366519      3.0979412E-04
  3.0346253E-04
   5.555557      -5.555557      7.4789568E-04  -2.718754      6.8202679E-04
  3.0689975E-04
   5.555557       5.555557      7.4804266E-04  -2.718819      6.8218086E-04
  3.0691546E-04
   5.555557       16.66666      4.3372076E-04  -2.366571      3.0985280E-04
  3.0348796E-04
   5.555557       27.77778      3.1957301E-04  -2.074735      1.5431494E-04
  2.7984605E-04
   5.555557       38.88889      2.5483590E-04  -1.849734      7.0165202E-05
  2.4498609E-04
   5.555557       50.00000      2.0208965E-04  -1.619779      9.8948658E-06
  2.0184726E-04
   16.66666      -50.00000      1.9129799E-04  -1.575822      9.6134102E-07
  1.9129558E-04
   16.66666      -38.88889      2.3912606E-04  -1.784307      5.0668834E-05
  2.3369626E-04
   16.66666      -27.77778      2.9059901E-04  -1.970348      1.1304468E-04
  2.6771007E-04
   16.66666      -16.66667      3.5904895E-04  -2.194437      2.0968259E-04
  2.9146075E-04
   16.66666      -5.555557      4.3229121E-04  -2.370511      3.1002073E-04
  3.0126874E-04
   16.66666       5.555557      4.3231106E-04  -2.370528      3.1004022E-04
  3.0127715E-04
   16.66666       16.66666      3.5906542E-04  -2.194458      2.0969838E-04
  2.9146968E-04
   16.66666       27.77778      2.9061615E-04  -1.970393      1.1306330E-04
  2.6772081E-04
   16.66666       38.88889      2.3913986E-04  -1.784354      5.0682938E-05
  2.3370732E-04
   16.66666       50.00000      1.9130961E-04  -1.575872      9.7095847E-07
  1.9130715E-04
   27.77778      -50.00000      1.7230454E-04  -1.479358     -1.5733283E-05
  1.7158473E-04
   27.77778      -38.88889      2.1312931E-04  -1.670011      2.1110884E-05
  2.1208120E-04
   27.77778      -27.77778      2.5447411E-04  -1.851492      7.0495465E-05
  2.4451475E-04
   27.77778      -16.66667      2.9028227E-04  -1.971494      1.1322784E-04
  2.6728871E-04
   27.77778      -5.555557      3.1861608E-04  -2.077651      1.5466558E-04
  2.7855835E-04
   27.77778       5.555557      3.1862152E-04  -2.077662      1.5467138E-04
  2.7856138E-04
   27.77778       16.66666      2.9029255E-04  -1.971521      1.1323903E-04
  2.6729514E-04
   27.77778       27.77778      2.5448436E-04  -1.851520      7.0505201E-05
  2.4452261E-04
   27.77778       38.88889      2.1313968E-04  -1.670051      2.1120326E-05
  2.1209067E-04
   27.77778       50.00000      1.7231457E-04  -1.479406     -1.5725986E-05
  1.7159547E-04
   38.88889      -50.00000      1.4716593E-04  -1.342072     -3.3367647E-05
  1.4333322E-04
   38.88889      -38.88889      1.8133641E-04  -1.528099     -7.7401746E-06
  1.8117114E-04
   38.88889      -27.77778      2.1298340E-04  -1.670843      2.1272826E-05
  2.1191838E-04
   38.88889      -16.66667      2.3873719E-04  -1.786097      5.1004095E-05
  2.3322528E-04
   38.88889      -5.555557      2.5430380E-04  -1.852399      7.0670001E-05
  2.4428708E-04
   38.88889       5.555557      2.5430595E-04  -1.852405      7.0671980E-05
  2.4428873E-04
   38.88889       16.66666      2.3874317E-04  -1.786118      5.1010153E-05
  2.3323008E-04
   38.88889       27.77778      2.1299093E-04  -1.670872      2.1279562E-05
  2.1192526E-04
   38.88889       38.88889      1.8134470E-04  -1.528137     -7.7336472E-06
  1.8117973E-04
   38.88889       50.00000      1.4717443E-04  -1.342118     -3.3363031E-05
  1.4334302E-04
   50.00000      -50.00000      1.1885470E-04  -1.154976     -4.8010283E-05
  1.0872650E-04
   50.00000      -38.88889      1.4707330E-04  -1.342896     -3.3228673E-05
  1.4327040E-04
   50.00000      -27.77778      1.7208347E-04  -1.480943     -1.5441388E-05
  1.7138927E-04
   50.00000      -16.66667      1.9092011E-04  -1.578228      1.4188380E-06
  1.9091484E-04
   50.00000      -5.555557      2.0157204E-04  -1.623029      1.0523961E-05
  2.0129712E-04
   50.00000       5.555557      2.0157333E-04  -1.623034      1.0525018E-05
  2.0129836E-04
   50.00000       16.66666      1.9092397E-04  -1.578245      1.4221174E-06
  1.9091867E-04
   50.00000       27.77778      1.7208907E-04  -1.480970     -1.5437363E-05
  1.7139527E-04
   50.00000       38.88889      1.4707979E-04  -1.342931     -3.3225118E-05
  1.4327790E-04
   50.00000       50.00000      1.1886164E-04  -1.155026     -4.8007620E-05
  1.0873526E-04
           1           2          12          11
           2           3          13          12
           3           4          14          13
           4           5          15          14
           5           6          16          15
           6           7          17          16
           7           8          18          17
           8           9          19          18
           9          10          20          19
          11          12          22          21
          12          13          23          22
          13          14          24          23
          14          15          25          24
          15          16          26          25
          16          17          27          26
          17          18          28          27
          18          19          29          28
          19          20          30          29
          21          22          32          31
          22          23          33          32
          23          24          34          33
          24          25          35          34
          25          26          36          35
          26          27          37          36
          27          28          38          37
          28          29          39          38
          29          30          40          39
          31          32          42          41
          32          33          43          42
          33          34          44          43
          34          35          45          44
          35          36          46          45
          36          37          47          46
          37          38          48          47
          38          39          49          48
          39          40          50          49
          41          42          52          51
          42          43          53          52
          43          44          54          53
          44          45          55          54
          45          46          56          55
          46          47          57          56
          47          48          58          57
          48          49          59          58
          49          50          60          59
          51          52          62          61
          52          53          63          62
          53          54          64          63
          54          55          65          64
          55          56          66          65
          56          57          67          66
          57          58          68          67
          58          59          69          68
          59          60          70          69
          61          62          72          71
          62          63          73          72
          63          64          74          73
          64          65          75          74
          65          66          76          75
          66          67          77          76
          67          68          78          77
          68          69          79          78
          69          70          80          79
          71          72          82          81
          72          73          83          82
          73          74          84          83
          74          75          85          84
          75          76          86          85
          76          77          87          86
          77          78          88          87
          78          79          89          88
          79          80          90          89
          81          82          92          91
          82          83          93          92
          83          84          94          93
          84          85          95          94
          85          86          96          95
          86          87          97          96
          87          88          98          97
          88          89          99          98
          89          90         100          99
