 VARIABLES="X" "Y" "abs(eta) (m)" "angle(phi) (rad)" "PRE1" "PRE2"
ZONE N=    100 ,E =      81 ,F=FEPOINT,ET=QUADRILATERAL
  -50.00000      -50.00000      3.5869114E-06 -0.9111187     -2.1982823E-06
  2.8343409E-06
  -50.00000      -38.88889      3.3554493E-06  -1.048048     -1.6752529E-06
  2.9073299E-06
  -50.00000      -27.77778      2.3238058E-06  -1.044966     -1.1663911E-06
  2.0098769E-06
  -50.00000      -16.66667      1.7240770E-06  -1.235413     -5.6744682E-07
  1.6280189E-06
  -50.00000      -5.555557      5.3360452E-07  -1.636271      3.4912880E-08
  5.3246117E-07
  -50.00000       5.555557      1.0604892E-06   2.212813      6.3503347E-07
 -8.4933498E-07
  -50.00000       16.66666      2.2793411E-06   2.138326      1.2252621E-06
 -1.9220115E-06
  -50.00000       27.77778      2.8981112E-06   2.241166      1.8005252E-06
 -2.2709378E-06
  -50.00000       38.88889      3.8543203E-06   2.202009      2.2745276E-06
 -3.1116410E-06
  -50.00000       50.00000      4.0537479E-06   2.317329      2.7528897E-06
 -2.9756463E-06
  -38.88889      -50.00000      4.3817754E-06  -1.034327     -2.2395452E-06
  3.7662176E-06
  -38.88889      -38.88889      3.8247517E-06  -1.092412     -1.7607071E-06
  3.3953845E-06
  -38.88889      -27.77778      4.0262321E-06  -1.276780     -1.1667966E-06
  3.8534572E-06
  -38.88889      -16.66667      3.1464308E-06  -1.390912     -5.6294704E-07
  3.0956610E-06
  -38.88889      -5.555557      1.0649168E-06  -1.619113      5.1433698E-08
  1.0636739E-06
  -38.88889       5.555557      1.6807589E-06   1.979089      6.6733389E-07
 -1.5426004E-06
  -38.88889       16.66666      3.7460036E-06   1.916524      1.2694520E-06
 -3.5243488E-06
  -38.88889       27.77778      4.5930228E-06   1.985095      1.8489136E-06
 -4.2044471E-06
  -38.88889       38.88889      4.3911009E-06   2.150929      2.4069157E-06
 -3.6726726E-06
  -38.88889       50.00000      4.8828183E-06   2.191282      2.8390195E-06
 -3.9726419E-06
  -27.77778      -50.00000      4.4032963E-06  -1.007018     -2.3530486E-06
  3.7218520E-06
  -27.77778      -38.88889      5.7417642E-06  -1.257468     -1.7697624E-06
  5.4622155E-06
  -27.77778      -27.77778      6.3794246E-06  -1.384715     -1.1802501E-06
  6.2692957E-06
  -27.77778      -16.66667      5.0528856E-06  -1.456279     -5.7738049E-07
  5.0197891E-06
  -27.77778      -5.555557      2.6034536E-06  -1.593944      6.0258344E-08
  2.6027562E-06
  -27.77778       5.555557      3.3318311E-06   1.781341      6.9632813E-07
 -3.2582550E-06
  -27.77778       16.66666      5.7603193E-06   1.802257      1.3214164E-06
 -5.6067047E-06
  -27.77778       27.77778      7.0239112E-06   1.844576      1.8990741E-06
 -6.7623105E-06
  -27.77778       38.88889      6.3149241E-06   1.969574      2.4520336E-06
 -5.8194328E-06
  -27.77778       50.00000      4.9795526E-06   2.214225      2.9874418E-06
 -3.9838596E-06
  -16.66667      -50.00000      5.6866752E-06  -1.142869     -2.3598884E-06
  5.1738962E-06
  -16.66667      -38.88889      7.7077302E-06  -1.337181     -1.7843063E-06
  7.4983568E-06
  -16.66667      -27.77778      8.6371920E-06  -1.430222     -1.2101746E-06
  8.5519914E-06
  -16.66667      -16.66667      3.4821178E-06  -1.402463     -5.8339356E-07
  3.4328991E-06
  -16.66667      -5.555557      1.1079537E-05  -1.576850      6.7076208E-08
  1.1079334E-05
  -16.66667       5.555557      1.2094586E-05   1.629983      7.1542223E-07
 -1.2073408E-05
  -16.66667       16.66666      4.5274464E-06   1.874326      1.3532087E-06
 -4.3204859E-06
  -16.66667       27.77778      9.3664585E-06   1.781012      1.9545037E-06
 -9.1602651E-06
  -16.66667       38.88889      8.3297637E-06   1.874493      2.4910144E-06
 -7.9485726E-06
  -16.66667       50.00000      6.2535041E-06   2.074497      3.0183783E-06
 -5.4768338E-06
  -5.555557      -50.00000      6.4969095E-06  -1.198174     -2.3652581E-06
  6.0510647E-06
  -5.555557      -38.88889      9.0423546E-06  -1.370848     -1.7959807E-06
  8.8622019E-06
  -5.555557      -27.77778      1.4334253E-05  -1.486147     -1.2119380E-06
  1.4282928E-05
  -5.555557      -16.66667      3.4146553E-05  -1.553779     -5.8105007E-07
  3.4141609E-05
  -5.555557      -5.555557      1.1823386E-04  -1.571393      7.0594716E-08
  1.1823384E-04
  -5.555557       5.555557      1.2061885E-04   1.576808      7.2510016E-07
 -1.2061666E-04
  -5.555557       16.66666      3.5354078E-05   1.609378      1.3636625E-06
 -3.5327768E-05
  -5.555557       27.77778      1.5153479E-05   1.701099      1.9689599E-06
 -1.5025016E-05
  -5.555557       38.88889      9.7141165E-06   1.832704      2.5152167E-06
 -9.3828430E-06
  -5.555557       50.00000      7.0708061E-06   2.014597      3.0360272E-06
 -6.3858311E-06
   5.555557      -50.00000      6.4950818E-06  -1.198077     -2.3651785E-06
  6.0491338E-06
   5.555557      -38.88889      9.0358953E-06  -1.370718     -1.7958517E-06
  8.8556380E-06
   5.555557      -27.77778      1.4314726E-05  -1.486038     -1.2118360E-06
  1.4263339E-05
   5.555557      -16.66667      3.4063141E-05  -1.553740     -5.8097584E-07
  3.4058186E-05
   5.555557      -5.555557      1.1804212E-04  -1.571394      7.0541020E-08
  1.1804209E-04
   5.555557       5.555557      1.2107191E-04   1.576786      7.2512427E-07
 -1.2106974E-04
   5.555557       16.66666      3.5447967E-05   1.609280      1.3638175E-06
 -3.5421723E-05
   5.555557       27.77778      1.5174884E-05   1.700921      1.9690619E-06
 -1.5046590E-05
   5.555557       38.88889      9.7208267E-06   1.832543      2.5154359E-06
 -9.3897315E-06
   5.555557       50.00000      7.0727651E-06   2.014461      3.0359981E-06
 -6.3880138E-06
   16.66666      -50.00000      5.6831618E-06  -1.142606     -2.3597916E-06
  5.1700786E-06
   16.66666      -38.88889      7.6926744E-06  -1.336755     -1.7840136E-06
  7.4829495E-06
   16.66666      -27.77778      8.6093696E-06  -1.429784     -1.2100102E-06
  8.5239144E-06
   16.66666      -16.66667      3.4311690E-06  -1.399970     -5.8328703E-07
  3.3812271E-06
   16.66666      -5.555557      1.0818913E-05  -1.577028      6.7418220E-08
  1.0818703E-05
   16.66666       5.555557      1.2365583E-05   1.628713      7.1577091E-07
 -1.2344850E-05
   16.66666       16.66666      4.5901011E-06   1.870121      1.3535060E-06
 -4.3860059E-06
   16.66666       27.77778      9.3971485E-06   1.780351      1.9548329E-06
 -9.1915736E-06
   16.66666       38.88889      8.3451559E-06   1.873967      2.4914248E-06
 -7.9645733E-06
   16.66666       50.00000      6.2575609E-06   2.074212      3.0187744E-06
 -5.4812472E-06
   27.77778      -50.00000      4.4027697E-06  -1.007070     -2.3525761E-06
  3.7215277E-06
   27.77778      -38.88889      5.7278703E-06  -1.256778     -1.7692441E-06
  5.4477769E-06
   27.77778      -27.77778      6.3467614E-06  -1.383814     -1.1798321E-06
  6.2361346E-06
   27.77778      -16.66667      5.0055933E-06  -1.455268     -5.7700271E-07
  4.9722262E-06
   27.77778      -5.555557      2.5010931E-06  -1.595125      6.0842375E-08
  2.5003530E-06
   27.77778       5.555557      3.4337556E-06   1.775146      6.9681170E-07
 -3.3623105E-06
   27.77778       16.66666      5.8102064E-06   1.800319      1.3218961E-06
 -5.6578342E-06
   27.77778       27.77778      7.0570954E-06   1.843359      1.8997728E-06
 -6.7965771E-06
   27.77778       38.88889      6.3293201E-06   1.968704      2.4525516E-06
 -5.8348337E-06
   27.77778       50.00000      4.9806436E-06   2.214192      2.9879679E-06
 -3.9848287E-06
   38.88889      -50.00000      4.3753025E-06  -1.033604     -2.2389559E-06
  3.7590357E-06
   38.88889      -38.88889      3.8205108E-06  -1.092012     -1.7601105E-06
  3.3909162E-06
   38.88889      -27.77778      4.0065634E-06  -1.275481     -1.1660761E-06
  3.8331209E-06
   38.88889      -16.66667      3.1108061E-06  -1.389084     -5.6216749E-07
  3.0595886E-06
   38.88889      -5.555557      1.0179363E-06  -1.621928      5.2025801E-08
  1.0166059E-06
   38.88889       5.555557      1.7246089E-06   1.968505      6.6795224E-07
 -1.5900049E-06
   38.88889       16.66666      3.7809968E-06   1.913351      1.2700156E-06
 -3.5613195E-06
   38.88889       27.77778      4.6128448E-06   1.983360      1.8495612E-06
 -4.2258089E-06
   38.88889       38.88889      4.3959853E-06   2.150377      2.4075619E-06
 -3.6780882E-06
   38.88889       50.00000      4.8893748E-06   2.190450      2.8395216E-06
 -3.9803394E-06
   50.00000      -50.00000      3.5824207E-06 -0.9103726     -2.1976414E-06
  2.8291536E-06
   50.00000      -38.88889      3.3472693E-06  -1.046837     -1.6746793E-06
  2.8982170E-06
   50.00000      -27.77778      2.3226564E-06  -1.045069     -1.1656064E-06
  2.0090035E-06
   50.00000      -16.66667      1.7124571E-06  -1.233612     -5.6653437E-07
  1.6160285E-06
   50.00000      -5.555557      5.1485114E-07  -1.640000      3.5600912E-08
  5.1361877E-07
   50.00000       5.555557      1.0763644E-06   2.202719      6.3580563E-07
 -8.6851105E-07
   50.00000       16.66666      2.2904214E-06   2.135644      1.2260334E-06
 -1.9346505E-06
   50.00000       27.77778      2.8997194E-06   2.241055      1.8012731E-06
 -2.2723971E-06
   50.00000       38.88889      3.8626799E-06   2.200671      2.2752854E-06
 -3.1214377E-06
   50.00000       50.00000      4.0583504E-06   2.316510      2.7535768E-06
 -2.9812788E-06
           1           2          12          11
           2           3          13          12
           3           4          14          13
           4           5          15          14
           5           6          16          15
           6           7          17          16
           7           8          18          17
           8           9          19          18
           9          10          20          19
          11          12          22          21
          12          13          23          22
          13          14          24          23
          14          15          25          24
          15          16          26          25
          16          17          27          26
          17          18          28          27
          18          19          29          28
          19          20          30          29
          21          22          32          31
          22          23          33          32
          23          24          34          33
          24          25          35          34
          25          26          36          35
          26          27          37          36
          27          28          38          37
          28          29          39          38
          29          30          40          39
          31          32          42          41
          32          33          43          42
          33          34          44          43
          34          35          45          44
          35          36          46          45
          36          37          47          46
          37          38          48          47
          38          39          49          48
          39          40          50          49
          41          42          52          51
          42          43          53          52
          43          44          54          53
          44          45          55          54
          45          46          56          55
          46          47          57          56
          47          48          58          57
          48          49          59          58
          49          50          60          59
          51          52          62          61
          52          53          63          62
          53          54          64          63
          54          55          65          64
          55          56          66          65
          56          57          67          66
          57          58          68          67
          58          59          69          68
          59          60          70          69
          61          62          72          71
          62          63          73          72
          63          64          74          73
          64          65          75          74
          65          66          76          75
          66          67          77          76
          67          68          78          77
          68          69          79          78
          69          70          80          79
          71          72          82          81
          72          73          83          82
          73          74          84          83
          74          75          85          84
          75          76          86          85
          76          77          87          86
          77          78          88          87
          78          79          89          88
          79          80          90          89
          81          82          92          91
          82          83          93          92
          83          84          94          93
          84          85          95          94
          85          86          96          95
          86          87          97          96
          87          88          98          97
          88          89          99          98
          89          90         100          99
