 VARIABLES="X" "Y" "abs(eta) (m)" "angle(phi) (rad)" "PRE1" "PRE2"
ZONE N=    100 ,E =      81 ,F=FEPOINT,ET=QUADRILATERAL
  -50.00000      -50.00000      1.4591578E-03   2.995555      1.4436257E-03
 -2.1233533E-04
  -50.00000      -38.88889      1.7776602E-03   2.337792      1.2336517E-03
 -1.2799138E-03
  -50.00000      -27.77778      1.9549609E-03   1.820703      4.8348814E-04
 -1.8942310E-03
  -50.00000      -16.66667      2.0214482E-03   1.442180     -2.5927505E-04
 -2.0047517E-03
  -50.00000      -5.555557      2.0364043E-03   1.233858     -6.7323406E-04
 -1.9218997E-03
  -50.00000       5.555557      2.0364060E-03   1.233834     -6.7328062E-04
 -1.9218851E-03
  -50.00000       16.66666      2.0214554E-03   1.442113     -2.5941059E-04
 -2.0047415E-03
  -50.00000       27.77778      1.9549867E-03   1.820601      4.8330164E-04
 -1.8943053E-03
  -50.00000       38.88889      1.7777157E-03   2.337662      1.2335239E-03
 -1.2801141E-03
  -50.00000       50.00000      1.4592442E-03   2.995385      1.4436750E-03
 -2.1259309E-04
  -38.88889      -50.00000      1.7776599E-03   2.337792      1.2336515E-03
 -1.2799135E-03
  -38.88889      -38.88889      1.9939190E-03   1.636230      1.3037566E-04
 -1.9896519E-03
  -38.88889      -27.77778      2.0380514E-03   1.010394     -1.0832796E-03
 -1.7263135E-03
  -38.88889      -16.66667      2.0081382E-03  0.4984731     -1.7637750E-03
 -9.6006069E-04
  -38.88889      -5.555557      1.9851497E-03  0.1953585     -1.9473885E-03
 -3.8535384E-04
  -38.88889       5.555557      1.9851471E-03  0.1953219     -1.9474000E-03
 -3.8528189E-04
  -38.88889       16.66666      2.0081294E-03  0.4983747     -1.7638617E-03
 -9.5988298E-04
  -38.88889       27.77778      2.0380500E-03   1.010263     -1.0835050E-03
 -1.7261704E-03
  -38.88889       38.88889      1.9939458E-03   1.636077      1.3007381E-04
 -1.9896987E-03
  -38.88889       50.00000      1.7777316E-03   2.337625      1.2334879E-03
 -1.2801707E-03
  -27.77778      -50.00000      1.9549604E-03   1.820703      4.8348808E-04
 -1.8942306E-03
  -27.77778      -38.88889      2.0380504E-03   1.010394     -1.0832788E-03
 -1.7263129E-03
  -27.77778      -27.77778      1.9851520E-03  0.1953956     -1.9473765E-03
 -3.8542645E-04
  -27.77778      -16.66667      1.9790013E-03 -0.5526720     -1.6843772E-03
  1.0389030E-03
  -27.77778      -5.555557      2.0470333E-03  -1.023335     -1.0655239E-03
  1.7478568E-03
  -27.77778       5.555557      2.0470463E-03  -1.023393     -1.0654291E-03
  1.7479300E-03
  -27.77778       16.66666      1.9790137E-03 -0.5528230     -1.6842308E-03
  1.0391639E-03
  -27.77778       27.77778      1.9851397E-03  0.1952121     -1.9474350E-03
 -3.8506676E-04
  -27.77778       38.88889      2.0380481E-03   1.010210     -1.0835956E-03
 -1.7261114E-03
  -27.77778       50.00000      1.9550063E-03   1.820520      4.8315298E-04
 -1.8943633E-03
  -16.66667      -50.00000      2.0214482E-03   1.442180     -2.5927514E-04
 -2.0047517E-03
  -16.66667      -38.88889      2.0081378E-03  0.4984732     -1.7637747E-03
 -9.6006069E-04
  -16.66667      -27.77778      1.9790023E-03 -0.5526718     -1.6843781E-03
  1.0389033E-03
  -16.66667      -16.66667      2.2239669E-03  -1.578885      1.7989458E-05
  2.2238942E-03
  -16.66667      -5.555557      2.6379866E-03  -2.274008      1.7059088E-03
  2.0121750E-03
  -16.66667       5.555557      2.6380562E-03  -2.274099      1.7061365E-03
  2.0120733E-03
  -16.66667       16.66666      2.2240528E-03  -1.579091      1.8447618E-05
  2.2239762E-03
  -16.66667       27.77778      1.9790207E-03 -0.5529227     -1.6841332E-03
  1.0393355E-03
  -16.66667       38.88889      2.0081196E-03  0.4982446     -1.7639782E-03
 -9.5964875E-04
  -16.66667       50.00000      2.0214687E-03   1.441979     -2.5968003E-04
 -2.0047200E-03
  -5.555557      -50.00000      2.0364046E-03   1.233858     -6.7323400E-04
 -1.9219001E-03
  -5.555557      -38.88889      1.9851504E-03  0.1953585     -1.9473891E-03
 -3.8535381E-04
  -5.555557      -27.77778      2.0470324E-03  -1.023335     -1.0655231E-03
  1.7478565E-03
  -5.555557      -16.66667      2.6379875E-03  -2.274008      1.7059093E-03
  2.0121760E-03
  -5.555557      -5.555557      4.2819013E-03   2.886837      4.1437023E-03
 -1.0790778E-03
  -5.555557       5.555557      4.2824969E-03   2.886598      4.1440213E-03
 -1.0802168E-03
  -5.555557       16.66666      2.6381956E-03  -2.274282      1.7065962E-03
  2.0118663E-03
  -5.555557       27.77778      2.0470968E-03  -1.023624     -1.0650525E-03
  1.7482188E-03
  -5.555557       38.88889      1.9851311E-03  0.1951018     -1.9474690E-03
 -3.8485011E-04
  -5.555557       50.00000      2.0364132E-03   1.233642     -6.7365210E-04
 -1.9217626E-03
   5.555557      -50.00000      2.0364060E-03   1.233834     -6.7328039E-04
 -1.9218853E-03
   5.555557      -38.88889      1.9851469E-03  0.1953219     -1.9473997E-03
 -3.8528198E-04
   5.555557      -27.77778      2.0470456E-03  -1.023393     -1.0654291E-03
  1.7479294E-03
   5.555557      -16.66667      2.6380557E-03  -2.274099      1.7061362E-03
  2.0120728E-03
   5.555557      -5.555557      4.2824978E-03   2.886598      4.1440222E-03
 -1.0802165E-03
   5.555557       5.555557      4.2830938E-03   2.886360      4.1443412E-03
 -1.0813547E-03
   5.555557       16.66666      2.6382662E-03  -2.274373      1.7068246E-03
  2.0117648E-03
   5.555557       27.77778      2.0471103E-03  -1.023682     -1.0649583E-03
  1.7482919E-03
   5.555557       38.88889      1.9851297E-03  0.1950650     -1.9474818E-03
 -3.8477828E-04
   5.555557       50.00000      2.0364141E-03   1.233618     -6.7369849E-04
 -1.9217472E-03
   16.66666      -50.00000      2.0214547E-03   1.442113     -2.5941056E-04
 -2.0047408E-03
   16.66666      -38.88889      2.0081298E-03  0.4983752     -1.7638616E-03
 -9.5988397E-04
   16.66666      -27.77778      1.9790139E-03 -0.5528226     -1.6842316E-03
  1.0391633E-03
   16.66666      -16.66667      2.2240528E-03  -1.579091      1.8447425E-05
  2.2239762E-03
   16.66666      -5.555557      2.6381956E-03  -2.274282      1.7065954E-03
  2.0118670E-03
   16.66666       5.555557      2.6382657E-03  -2.274373      1.7068241E-03
  2.0117648E-03
   16.66666       16.66666      2.2241364E-03  -1.579297      1.8905506E-05
  2.2240561E-03
   16.66666       27.77778      1.9790339E-03 -0.5530730     -1.6839883E-03
  1.0395957E-03
   16.66666       38.88889      2.0081124E-03  0.4981459     -1.7640663E-03
 -9.5947122E-04
   16.66666       50.00000      2.0214750E-03   1.441912     -2.5981542E-04
 -2.0047086E-03
   27.77778      -50.00000      1.9549858E-03   1.820601      4.8330196E-04
 -1.8943043E-03
   27.77778      -38.88889      2.0380493E-03   1.010263     -1.0835046E-03
 -1.7261698E-03
   27.77778      -27.77778      1.9851406E-03  0.1952123     -1.9474358E-03
 -3.8506719E-04
   27.77778      -16.66667      1.9790216E-03 -0.5529222     -1.6841345E-03
  1.0393353E-03
   27.77778      -5.555557      2.0470973E-03  -1.023624     -1.0650527E-03
  1.7482191E-03
   27.77778       5.555557      2.0471101E-03  -1.023682     -1.0649581E-03
  1.7482917E-03
   27.77778       16.66666      1.9790339E-03 -0.5530728     -1.6839885E-03
  1.0395951E-03
   27.77778       27.77778      1.9851264E-03  0.1950291     -1.9474924E-03
 -3.8470767E-04
   27.77778       38.88889      2.0380467E-03   1.010078     -1.0838219E-03
 -1.7259676E-03
   27.77778       50.00000      1.9550326E-03   1.820418      4.8296675E-04
 -1.8944379E-03
   38.88889      -50.00000      1.7777157E-03   2.337662      1.2335242E-03
 -1.2801138E-03
   38.88889      -38.88889      1.9939458E-03   1.636077      1.3007398E-04
 -1.9896987E-03
   38.88889      -27.77778      2.0380479E-03   1.010210     -1.0835951E-03
 -1.7261114E-03
   38.88889      -16.66667      2.0081191E-03  0.4982446     -1.7639776E-03
 -9.5964846E-04
   38.88889      -5.555557      1.9851318E-03  0.1951021     -1.9474695E-03
 -3.8485089E-04
   38.88889       5.555557      1.9851283E-03  0.1950655     -1.9474803E-03
 -3.8477898E-04
   38.88889       16.66666      2.0081117E-03  0.4981463     -1.7640654E-03
 -9.5947168E-04
   38.88889       27.77778      2.0380467E-03   1.010078     -1.0838215E-03
 -1.7259679E-03
   38.88889       38.88889      1.9939733E-03   1.635925      1.2977216E-04
 -1.9897458E-03
   38.88889       50.00000      1.7777876E-03   2.337495      1.2333603E-03
 -1.2803714E-03
   50.00000      -50.00000      1.4592449E-03   2.995385      1.4436758E-03
 -2.1259290E-04
   50.00000      -38.88889      1.7777317E-03   2.337625      1.2334876E-03
 -1.2801712E-03
   50.00000      -27.77778      1.9550065E-03   1.820520      4.8315286E-04
 -1.8943637E-03
   50.00000      -16.66667      2.0214685E-03   1.441979     -2.5967980E-04
 -2.0047198E-03
   50.00000      -5.555557      2.0364134E-03   1.233642     -6.7365187E-04
 -1.9217629E-03
   50.00000       5.555557      2.0364132E-03   1.233618     -6.7369803E-04
 -1.9217464E-03
   50.00000       16.66666      2.0214743E-03   1.441912     -2.5981528E-04
 -2.0047082E-03
   50.00000       27.77778      1.9550321E-03   1.820418      4.8296666E-04
 -1.8944376E-03
   50.00000       38.88889      1.7777879E-03   2.337495      1.2333606E-03
 -1.2803716E-03
   50.00000       50.00000      1.4593309E-03   2.995216      1.4437248E-03
 -2.1285041E-04
           1           2          12          11
           2           3          13          12
           3           4          14          13
           4           5          15          14
           5           6          16          15
           6           7          17          16
           7           8          18          17
           8           9          19          18
           9          10          20          19
          11          12          22          21
          12          13          23          22
          13          14          24          23
          14          15          25          24
          15          16          26          25
          16          17          27          26
          17          18          28          27
          18          19          29          28
          19          20          30          29
          21          22          32          31
          22          23          33          32
          23          24          34          33
          24          25          35          34
          25          26          36          35
          26          27          37          36
          27          28          38          37
          28          29          39          38
          29          30          40          39
          31          32          42          41
          32          33          43          42
          33          34          44          43
          34          35          45          44
          35          36          46          45
          36          37          47          46
          37          38          48          47
          38          39          49          48
          39          40          50          49
          41          42          52          51
          42          43          53          52
          43          44          54          53
          44          45          55          54
          45          46          56          55
          46          47          57          56
          47          48          58          57
          48          49          59          58
          49          50          60          59
          51          52          62          61
          52          53          63          62
          53          54          64          63
          54          55          65          64
          55          56          66          65
          56          57          67          66
          57          58          68          67
          58          59          69          68
          59          60          70          69
          61          62          72          71
          62          63          73          72
          63          64          74          73
          64          65          75          74
          65          66          76          75
          66          67          77          76
          67          68          78          77
          68          69          79          78
          69          70          80          79
          71          72          82          81
          72          73          83          82
          73          74          84          83
          74          75          85          84
          75          76          86          85
          76          77          87          86
          77          78          88          87
          78          79          89          88
          79          80          90          89
          81          82          92          91
          82          83          93          92
          83          84          94          93
          84          85          95          94
          85          86          96          95
          86          87          97          96
          87          88          98          97
          88          89          99          98
          89          90         100          99
