 VARIABLES="X" "Y" "abs(eta) (m)" "angle(phi) (rad)" "PRE1" "PRE2"
ZONE N=    100 ,E =      81 ,F=FEPOINT,ET=QUADRILATERAL
  -50.00000      -50.00000      2.2701398E-08   1.232062     -7.5435267E-09
 -2.1411415E-08
  -50.00000      -38.88889      7.1840262E-08   1.465611     -7.5426128E-09
 -7.1443210E-08
  -50.00000      -27.77778      6.5917817E-08  -1.456053     -7.5470217E-09
  6.5484357E-08
  -50.00000      -16.66667      1.0385492E-07   1.498047     -7.5487430E-09
 -1.0358021E-07
  -50.00000      -5.555557      2.0620810E-07   1.534185     -7.5479631E-09
 -2.0606991E-07
  -50.00000       5.555557      2.0670169E-07   1.534270     -7.5483779E-09
 -2.0656381E-07
  -50.00000       16.66666      1.0483053E-07   1.498736     -7.5475644E-09
 -1.0455847E-07
  -50.00000       27.77778      6.5705194E-08  -1.455694     -7.5461113E-09
  6.5270427E-08
  -50.00000       38.88889      7.3674684E-08   1.468199     -7.5455500E-09
 -7.3287268E-08
  -50.00000       50.00000      2.4185123E-08   1.253610     -7.5431998E-09
 -2.2978693E-08
  -38.88889      -50.00000      3.5599914E-08   1.356090     -7.5849247E-09
 -3.4782506E-08
  -38.88889      -38.88889      1.2483247E-08 -0.9174225     -7.5881763E-09
  9.9121662E-09
  -38.88889      -27.77778      2.2945997E-07   1.537718     -7.5887208E-09
 -2.2933445E-07
  -38.88889      -16.66667      4.6531454E-07   1.554483     -7.5906854E-09
 -4.6525261E-07
  -38.88889      -5.555557      3.2178656E-07   1.547208     -7.5897040E-09
 -3.2169703E-07
  -38.88889       5.555557      3.2236841E-07   1.547247     -7.5909909E-09
 -3.2227902E-07
  -38.88889       16.66666      4.6905058E-07   1.554615     -7.5894944E-09
 -4.6898919E-07
  -38.88889       27.77778      2.3303014E-07   1.538226     -7.5884481E-09
 -2.3290654E-07
  -38.88889       38.88889      1.1533968E-08 -0.8529250     -7.5868458E-09
  8.6874730E-09
  -38.88889       50.00000      3.7912901E-08   1.369355     -7.5856716E-09
 -3.7146275E-08
  -27.77778      -50.00000      7.7577582E-08  -1.472340     -7.6256779E-09
  7.7201882E-08
  -27.77778      -38.88889      1.3552919E-07   1.514469     -7.6300033E-09
 -1.3531424E-07
  -27.77778      -27.77778      1.9758586E-07   1.532174     -7.6294064E-09
 -1.9743851E-07
  -27.77778      -16.66667      6.6738318E-07   1.559362     -7.6310052E-09
 -6.6733952E-07
  -27.77778      -5.555557      1.6552840E-06   1.566186     -7.6317255E-09
 -1.6552664E-06
  -27.77778       5.555557      1.6604046E-06   1.566201     -7.6304332E-09
 -1.6603871E-06
  -27.77778       16.66666      6.7493568E-07   1.559491     -7.6302369E-09
 -6.7489253E-07
  -27.77778       27.77778      2.0237891E-07   1.533074     -7.6324032E-09
 -2.0223494E-07
  -27.77778       38.88889      1.4048824E-07   1.516472     -7.6281168E-09
 -1.4028099E-07
  -27.77778       50.00000      7.7243136E-08  -1.471902     -7.6265012E-09
  7.6865717E-08
  -16.66667      -50.00000      2.9589287E-08  -1.308691     -7.6670048E-09
  2.8578715E-08
  -16.66667      -38.88889      1.3854873E-07   1.515419     -7.6684632E-09
 -1.3833635E-07
  -16.66667      -27.77778      3.5321301E-07   1.549073     -7.6724129E-09
 -3.5312968E-07
  -16.66667      -16.66667      3.4486442E-07  -1.548547     -7.6723925E-09
  3.4477907E-07
  -16.66667      -5.555557      5.9795216E-06   1.569513     -7.6722619E-09
 -5.9795166E-06
  -16.66667       5.555557      6.0021289E-06   1.569518     -7.6734645E-09
 -6.0021239E-06
  -16.66667       16.66666      3.2871159E-07  -1.547455     -7.6719164E-09
  3.2862206E-07
  -16.66667       27.77778      3.6565785E-07   1.549817     -7.6705176E-09
 -3.6557739E-07
  -16.66667       38.88889      1.4721277E-07   1.518668     -7.6704358E-09
 -1.4701281E-07
  -16.66667       50.00000      2.6762361E-08  -1.280205     -7.6679108E-09
  2.5640341E-08
  -5.555557      -50.00000      6.3222572E-08  -1.448571     -7.7081772E-09
  6.2750914E-08
  -5.555557      -38.88889      4.8073193E-08  -1.409717     -7.7101392E-09
  4.7450875E-08
  -5.555557      -27.77778      2.2470064E-07   1.536471     -7.7114626E-09
 -2.2456828E-07
  -5.555557      -16.66667      1.8557085E-06   1.566639     -7.7139521E-09
 -1.8556925E-06
  -5.555557      -5.555557      2.6509753E-05   1.570505     -7.7143207E-09
 -2.6509751E-05
  -5.555557       5.555557      2.6613801E-05   1.570507     -7.7128171E-09
 -2.6613799E-05
  -5.555557       16.66666      1.9213890E-06   1.566782     -7.7122291E-09
 -1.9213735E-06
  -5.555557       27.77778      2.4977552E-07   1.539914     -7.7125133E-09
 -2.4965644E-07
  -5.555557       38.88889      4.0625434E-08  -1.379852     -7.7101596E-09
  3.9887080E-08
  -5.555557       50.00000      5.8754228E-08  -1.439224     -7.7081665E-09
  5.8246403E-08
   5.555557      -50.00000      1.2967924E-07  -1.511004     -7.7491880E-09
  1.2944750E-07
   5.555557      -38.88889      1.6954814E-07  -1.525064     -7.7511961E-09
  1.6937088E-07
   5.555557      -27.77778      4.8585821E-07  -1.554838     -7.7530187E-09
  4.8579636E-07
   5.555557      -16.66667      2.2471602E-06  -1.567346     -7.7530480E-09
  2.2471468E-06
   5.555557      -5.555557      2.7254981E-05  -1.570512     -7.7532842E-09
  2.7254979E-05
   5.555557       5.555557      2.7212174E-05  -1.570511     -7.7544433E-09
  2.7212172E-05
   5.555557       16.66666      2.1835958E-06  -1.567246     -7.7525462E-09
  2.1835820E-06
   5.555557       27.77778      4.6102434E-07  -1.553980     -7.7525337E-09
  4.6095914E-07
   5.555557       38.88889      1.6091663E-07  -1.522615     -7.7501170E-09
  1.6072988E-07
   5.555557       50.00000      1.2523034E-07  -1.508883     -7.7484126E-09
  1.2499041E-07
   16.66666      -50.00000      1.5995776E-07  -1.522090     -7.7878699E-09
  1.5976806E-07
   16.66666      -38.88889      3.4838982E-07  -1.548434     -7.7900673E-09
  3.4830271E-07
   16.66666      -27.77778      5.8241625E-07  -1.557416     -7.7927345E-09
  5.8236412E-07
   16.66666      -16.66667      6.4457090E-08   1.449586     -7.7937754E-09
 -6.3984167E-08
   16.66666      -5.555557      6.3310208E-06  -1.569565     -7.7930036E-09
  6.3310158E-06
   16.66666       5.555557      6.3105922E-06  -1.569561     -7.7929645E-09
  6.3105872E-06
   16.66666       16.66666      7.7904481E-08   1.470592     -7.7932958E-09
 -7.7513697E-08
   16.66666       27.77778      5.7047367E-07  -1.557137     -7.7922424E-09
  5.7042047E-07
   16.66666       38.88889      3.3984983E-07  -1.547873     -7.7899536E-09
  3.3976053E-07
   16.66666       50.00000      1.5705848E-07  -1.521191     -7.7877820E-09
  1.5686528E-07
   27.77778      -50.00000      1.0666028E-07  -1.497338     -7.8280387E-09
  1.0637263E-07
   27.77778      -38.88889      3.3136291E-07  -1.547165     -7.8298195E-09
  3.3127040E-07
   27.77778      -27.77778      4.1054051E-07  -1.551720     -7.8313320E-09
  4.1046582E-07
   27.77778      -16.66667      8.9202092E-07  -1.562018     -7.8307458E-09
  8.9198653E-07
   27.77778      -5.555557      1.8972212E-06  -1.566668     -7.8320426E-09
  1.8972050E-06
   27.77778       5.555557      1.8923583E-06  -1.566657     -7.8332940E-09
  1.8923421E-06
   27.77778       16.66666      8.8497251E-07  -1.561947     -7.8309368E-09
  8.8493783E-07
   27.77778       27.77778      4.0325895E-07  -1.551373     -7.8322326E-09
  4.0318290E-07
   27.77778       38.88889      3.2654779E-07  -1.546815     -7.8302973E-09
  3.2645389E-07
   27.77778       50.00000      1.0642710E-07  -1.497190     -7.8266700E-09
  1.0613893E-07
   38.88889      -50.00000      2.2026416E-07  -1.535079     -7.8656468E-09
  2.2012367E-07
   38.88889      -38.88889      1.7545619E-07  -1.525939     -7.8677722E-09
  1.7527971E-07
   38.88889      -27.77778      4.2402564E-07  -1.552238     -7.8689801E-09
  4.2395263E-07
   38.88889      -16.66667      6.7042998E-07  -1.559056     -7.8706170E-09
  6.7038377E-07
   38.88889      -5.555557      5.2834105E-07  -1.555898     -7.8708959E-09
  5.2828244E-07
   38.88889       5.555557      5.2661892E-07  -1.555847     -7.8721332E-09
  5.2656009E-07
   38.88889       16.66666      6.6678956E-07  -1.558991     -7.8713818E-09
  6.6674312E-07
   38.88889       27.77778      4.2055868E-07  -1.552084     -7.8690059E-09
  4.2048507E-07
   38.88889       38.88889      1.7434168E-07  -1.525646     -7.8688416E-09
  1.7416401E-07
   38.88889       50.00000      2.1791915E-07  -1.534689     -7.8666842E-09
  2.1777711E-07
   50.00000      -50.00000      2.0115147E-07  -1.531481     -7.9062765E-09
  2.0099603E-07
   50.00000      -38.88889      2.5639687E-07  -1.539958     -7.9057045E-09
  2.5627497E-07
   50.00000      -27.77778      1.1830412E-07  -1.503900     -7.9082545E-09
  1.1803951E-07
   50.00000      -16.66667      2.9014922E-07  -1.543537     -7.9083051E-09
  2.9004141E-07
   50.00000      -5.555557      3.9449185E-07  -1.550743     -7.9104874E-09
  3.9441252E-07
   50.00000       5.555557      3.9398776E-07  -1.550721     -7.9087830E-09
  3.9390838E-07
   50.00000       16.66666      2.8920451E-07  -1.543442     -7.9099545E-09
  2.8909631E-07
   50.00000       27.77778      1.1820978E-07  -1.503855     -7.9071985E-09
  1.1794502E-07
   50.00000       38.88889      2.5457055E-07  -1.539738     -7.9053493E-09
  2.5444777E-07
   50.00000       50.00000      1.9962796E-07  -1.531189     -7.9047142E-09
  1.9947140E-07
           1           2          12          11
           2           3          13          12
           3           4          14          13
           4           5          15          14
           5           6          16          15
           6           7          17          16
           7           8          18          17
           8           9          19          18
           9          10          20          19
          11          12          22          21
          12          13          23          22
          13          14          24          23
          14          15          25          24
          15          16          26          25
          16          17          27          26
          17          18          28          27
          18          19          29          28
          19          20          30          29
          21          22          32          31
          22          23          33          32
          23          24          34          33
          24          25          35          34
          25          26          36          35
          26          27          37          36
          27          28          38          37
          28          29          39          38
          29          30          40          39
          31          32          42          41
          32          33          43          42
          33          34          44          43
          34          35          45          44
          35          36          46          45
          36          37          47          46
          37          38          48          47
          38          39          49          48
          39          40          50          49
          41          42          52          51
          42          43          53          52
          43          44          54          53
          44          45          55          54
          45          46          56          55
          46          47          57          56
          47          48          58          57
          48          49          59          58
          49          50          60          59
          51          52          62          61
          52          53          63          62
          53          54          64          63
          54          55          65          64
          55          56          66          65
          56          57          67          66
          57          58          68          67
          58          59          69          68
          59          60          70          69
          61          62          72          71
          62          63          73          72
          63          64          74          73
          64          65          75          74
          65          66          76          75
          66          67          77          76
          67          68          78          77
          68          69          79          78
          69          70          80          79
          71          72          82          81
          72          73          83          82
          73          74          84          83
          74          75          85          84
          75          76          86          85
          76          77          87          86
          77          78          88          87
          78          79          89          88
          79          80          90          89
          81          82          92          91
          82          83          93          92
          83          84          94          93
          84          85          95          94
          85          86          96          95
          86          87          97          96
          87          88          98          97
          88          89          99          98
          89          90         100          99
