 VARIABLES="X" "Y" "abs(eta) (m)" "angle(phi) (rad)" "PRE1" "PRE2"
ZONE N=    100 ,E =      81 ,F=FEPOINT,ET=QUADRILATERAL
  -50.00000      -50.00000      8.5226907E-07   1.582028      9.5722088E-09
 -8.5221529E-07
  -50.00000      -38.88889      8.4832442E-07   1.564688     -5.1820974E-09
 -8.4830862E-07
  -50.00000      -27.77778      8.4010117E-07   1.548049     -1.9108546E-08
 -8.3988380E-07
  -50.00000      -16.66667      8.3025452E-07   1.534483     -3.0142548E-08
 -8.2970718E-07
  -50.00000      -5.555557      8.2321418E-07   1.526300     -3.6617859E-08
 -8.2239939E-07
  -50.00000       5.555557      8.2297356E-07   1.524952     -3.7715786E-08
 -8.2210886E-07
  -50.00000       16.66666      8.2983530E-07   1.530632     -3.3320646E-08
 -8.2916608E-07
  -50.00000       27.77778      8.4007729E-07   1.542475     -2.3788655E-08
 -8.3974044E-07
  -50.00000       38.88889      8.4945287E-07   1.557970     -1.0894877E-08
 -8.4938301E-07
  -50.00000       50.00000      8.5488250E-07   1.575231      3.7913699E-09
 -8.5487409E-07
  -38.88889      -50.00000      8.4800558E-07   1.566615     -3.5456735E-09
 -8.4799819E-07
  -38.88889      -38.88889      8.3555028E-07   1.544579     -2.1903768E-08
 -8.3526311E-07
  -38.88889      -27.77778      8.1510649E-07   1.523144     -3.8827334E-08
 -8.1418119E-07
  -38.88889      -16.66667      7.9141154E-07   1.504931     -5.2088506E-08
 -7.8969549E-07
  -38.88889      -5.555557      7.7188753E-07   1.493236     -5.9807562E-08
 -7.6956701E-07
  -38.88889       5.555557      7.7100651E-07   1.491434     -6.1124616E-08
 -7.6857975E-07
  -38.88889       16.66666      7.8947312E-07   1.499917     -5.5910178E-08
 -7.8749088E-07
  -38.88889       27.77778      8.1331120E-07   1.516005     -4.4540339E-08
 -8.1209066E-07
  -38.88889       38.88889      8.3501976E-07   1.536322     -2.8780926E-08
 -8.3452363E-07
  -38.88889       50.00000      8.4944884E-07   1.557974     -1.0891566E-08
 -8.4937903E-07
  -27.77778      -50.00000      8.4012999E-07   1.552517     -1.5356051E-08
 -8.3998964E-07
  -27.77778      -38.88889      8.1582886E-07   1.525996     -3.6537127E-08
 -8.1501031E-07
  -27.77778      -27.77778      7.7452887E-07   1.498625     -5.5850336E-08
 -7.7251258E-07
  -27.77778      -16.66667      7.2123652E-07   1.472344     -7.0892639E-08
 -7.1774394E-07
  -27.77778      -5.555557      6.6120987E-07   1.450082     -7.9623952E-08
 -6.5639813E-07
  -27.77778       5.555557      6.5886456E-07   1.447359     -8.1122252E-08
 -6.5385143E-07
  -27.77778       16.66666      7.1658462E-07   1.465586     -7.5252878E-08
 -7.1262230E-07
  -27.77778       27.77778      7.7011197E-07   1.489634     -6.2435859E-08
 -7.6757686E-07
  -27.77778       38.88889      8.1330285E-07   1.516011     -4.4535163E-08
 -8.1208259E-07
  -27.77778       50.00000      8.4006797E-07   1.542485     -2.3780274E-08
 -8.3973134E-07
  -16.66667      -50.00000      8.3111416E-07   1.542190     -2.3772039E-08
 -8.3077413E-07
  -16.66667      -38.88889      7.9400650E-07   1.511592     -4.6981199E-08
 -7.9261537E-07
  -16.66667      -27.77778      7.2432414E-07   1.476805     -6.7979634E-08
 -7.2112704E-07
  -16.66667      -16.66667      5.9799117E-07   1.429467     -8.4232518E-08
 -5.9202898E-07
  -16.66667      -5.555557      3.7979962E-07   1.321521     -9.3697381E-08
 -3.6806051E-07
  -16.66667       5.555557      3.7237652E-07   1.311891     -9.5336922E-08
 -3.5996547E-07
  -16.66667       16.66666      5.8837611E-07   1.418954     -8.8997751E-08
 -5.8160629E-07
  -16.66667       27.77778      7.1655313E-07   1.465590     -7.5246554E-08
 -7.1259132E-07
  -16.66667       38.88889      7.8945152E-07   1.499930     -5.5898788E-08
 -7.8747001E-07
  -16.66667       50.00000      8.2982103E-07   1.530649     -3.3306339E-08
 -8.2915238E-07
  -5.555557      -50.00000      8.2516897E-07   1.537082     -2.7814529E-08
 -8.2470007E-07
  -5.555557      -38.88889      7.7717556E-07   1.503983     -5.1887284E-08
 -7.7544155E-07
  -5.555557      -27.77778      6.7051315E-07   1.460782     -7.3617073E-08
 -6.6645958E-07
  -5.555557      -16.66667      3.9434781E-07   1.339473     -9.0410502E-08
 -3.8384388E-07
  -5.555557      -5.555557      3.8351700E-07  -1.306351     -1.0024147E-07
  3.7018501E-07
  -5.555557       5.555557      4.5685772E-07  -1.345712     -1.0196550E-07
  4.4533360E-07
  -5.555557       16.66666      3.7199669E-07   1.311641     -9.5329256E-08
 -3.5957456E-07
  -5.555557       27.77778      6.5873473E-07   1.447355     -8.1108809E-08
 -6.5372228E-07
  -5.555557       38.88889      7.7095751E-07   1.491452     -6.1106874E-08
 -7.6853200E-07
  -5.555557       50.00000      8.2294872E-07   1.524974     -3.7696008E-08
 -8.2208493E-07
   5.555557      -50.00000      8.2541686E-07   1.538429     -2.6711684E-08
 -8.2498451E-07
   5.555557      -38.88889      7.7805822E-07   1.505763     -5.0564125E-08
 -7.7641346E-07
   5.555557      -27.77778      6.7282065E-07   1.463412     -7.2111924E-08
 -6.6894506E-07
   5.555557      -16.66667      4.0155882E-07   1.347907     -8.8763777E-08
 -3.9162543E-07
   5.555557      -5.555557      3.1157165E-07  -1.249106     -9.8509837E-08
  2.9558873E-07
   5.555557       5.555557      3.8409630E-07  -1.306780     -1.0023371E-07
  3.7078723E-07
   5.555557       16.66666      3.7911300E-07   1.321101     -9.3682260E-08
 -3.6735582E-07
   5.555557       27.77778      6.6101751E-07   1.450077     -7.9603936E-08
 -6.5620679E-07
   5.555557       38.88889      7.7182284E-07   1.493261     -5.9783900E-08
 -7.6950397E-07
   5.555557       50.00000      8.2318297E-07   1.526328     -3.6593214E-08
 -8.2236920E-07
   16.66666      -50.00000      8.3155635E-07   1.546045     -2.0579739E-08
 -8.3130163E-07
   16.66666      -38.88889      7.9596106E-07   1.516568     -4.3142258E-08
 -7.9479099E-07
   16.66666      -27.77778      7.2893960E-07   1.483435     -6.3600041E-08
 -7.2615973E-07
   16.66666      -16.66667      6.0738506E-07   1.439620     -7.9445947E-08
 -6.0216689E-07
   16.66666      -5.555557      4.0123965E-07   1.347746     -8.8756501E-08
 -3.9129981E-07
   16.66666       5.555557      3.9373350E-07   1.339144     -9.0395901E-08
 -3.8321619E-07
   16.66666       16.66666      5.9770315E-07   1.429435     -8.4211187E-08
 -5.9174113E-07
   16.66666       27.77778      7.2111379E-07   1.472363     -7.0866982E-08
 -7.1762315E-07
   16.66666       38.88889      7.9135918E-07   1.504963     -5.2059907E-08
 -7.8964496E-07
   16.66666       50.00000      8.3022576E-07   1.534516     -3.0114059E-08
 -8.2967944E-07
   27.77778      -50.00000      8.4017893E-07   1.558114     -1.0654834E-08
 -8.4011134E-07
   27.77778      -38.88889      8.1764523E-07   1.533120     -3.0798567E-08
 -8.1706497E-07
   27.77778      -27.77778      7.7892793E-07   1.507545     -4.9235371E-08
 -7.7737030E-07
   27.77778      -16.66667      7.2891140E-07   1.483441     -6.3593497E-08
 -7.2613199E-07
   27.77778      -5.555557      6.7269855E-07   1.463412     -7.2098551E-08
 -6.6882370E-07
   27.77778       5.555557      6.7032806E-07   1.460782     -7.3597008E-08
 -6.6627564E-07
   27.77778       16.66666      7.2420488E-07   1.476826     -6.7953657E-08
 -7.2100971E-07
   27.77778       27.77778      7.7444929E-07   1.498656     -5.5820866E-08
 -7.7243493E-07
   27.77778       38.88889      8.1506039E-07   1.523179     -3.8796689E-08
 -8.1413651E-07
   27.77778       50.00000      8.4006973E-07   1.548083     -1.9079204E-08
 -8.3985304E-07
   38.88889      -50.00000      8.4690436E-07   1.573385      2.1926057E-09
 -8.4690151E-07
   38.88889      -38.88889      8.3610229E-07   1.552862     -1.4994214E-08
 -8.3596785E-07
   38.88889      -27.77778      8.1763756E-07   1.533126     -3.0793426E-08
 -8.1705747E-07
   38.88889      -16.66667      7.9594071E-07   1.516581     -4.3130758E-08
 -7.9477127E-07
   38.88889      -5.555557      7.7801127E-07   1.505781     -5.0546710E-08
 -7.7636753E-07
   38.88889       5.555557      7.7711348E-07   1.504008     -5.1863715E-08
 -7.7538090E-07
   38.88889       16.66666      7.9395573E-07   1.511624     -4.6952817E-08
 -7.9256620E-07
   38.88889       27.77778      8.1578321E-07   1.526031     -3.6506449E-08
 -8.1496597E-07
   38.88889       38.88889      8.3551447E-07   1.544616     -2.1871589E-08
 -8.3522815E-07
   38.88889       50.00000      8.4829816E-07   1.564720     -5.1542330E-09
 -8.4828253E-07
   50.00000      -50.00000      8.4966763E-07   1.588897      1.5379158E-08
 -8.4952842E-07
   50.00000      -38.88889      8.4690100E-07   1.573389      2.1959941E-09
 -8.4689816E-07
   50.00000      -27.77778      8.4016983E-07   1.558124     -1.0646443E-08
 -8.4010236E-07
   50.00000      -16.66667      8.3154208E-07   1.546062     -2.0565542E-08
 -8.3128771E-07
   50.00000      -5.555557      8.2539322E-07   1.538452     -2.6692076E-08
 -8.2496149E-07
   50.00000       5.555557      8.2513873E-07   1.537111     -2.7790028E-08
 -8.2467062E-07
   50.00000       16.66666      8.3108591E-07   1.542223     -2.3743690E-08
 -8.3074667E-07
   50.00000       27.77778      8.4009883E-07   1.552551     -1.5326826E-08
 -8.3995900E-07
   50.00000       38.88889      8.4797955E-07   1.566648     -3.5179497E-09
 -8.4797227E-07
   50.00000       50.00000      8.5224093E-07   1.582059      9.5979527E-09
 -8.5218687E-07
           1           2          12          11
           2           3          13          12
           3           4          14          13
           4           5          15          14
           5           6          16          15
           6           7          17          16
           7           8          18          17
           8           9          19          18
           9          10          20          19
          11          12          22          21
          12          13          23          22
          13          14          24          23
          14          15          25          24
          15          16          26          25
          16          17          27          26
          17          18          28          27
          18          19          29          28
          19          20          30          29
          21          22          32          31
          22          23          33          32
          23          24          34          33
          24          25          35          34
          25          26          36          35
          26          27          37          36
          27          28          38          37
          28          29          39          38
          29          30          40          39
          31          32          42          41
          32          33          43          42
          33          34          44          43
          34          35          45          44
          35          36          46          45
          36          37          47          46
          37          38          48          47
          38          39          49          48
          39          40          50          49
          41          42          52          51
          42          43          53          52
          43          44          54          53
          44          45          55          54
          45          46          56          55
          46          47          57          56
          47          48          58          57
          48          49          59          58
          49          50          60          59
          51          52          62          61
          52          53          63          62
          53          54          64          63
          54          55          65          64
          55          56          66          65
          56          57          67          66
          57          58          68          67
          58          59          69          68
          59          60          70          69
          61          62          72          71
          62          63          73          72
          63          64          74          73
          64          65          75          74
          65          66          76          75
          66          67          77          76
          67          68          78          77
          68          69          79          78
          69          70          80          79
          71          72          82          81
          72          73          83          82
          73          74          84          83
          74          75          85          84
          75          76          86          85
          76          77          87          86
          77          78          88          87
          78          79          89          88
          79          80          90          89
          81          82          92          91
          82          83          93          92
          83          84          94          93
          84          85          95          94
          85          86          96          95
          86          87          97          96
          87          88          98          97
          88          89          99          98
          89          90         100          99
