 VARIABLES="X" "Y" "abs(eta) (m)" "angle(phi) (rad)" "PRE1" "PRE2"
ZONE N=    100 ,E =      81 ,F=FEPOINT,ET=QUADRILATERAL
  -50.00000      -50.00000      6.6698901E-04 -5.0935403E-02 -6.6612399E-04
  3.3958666E-05
  -50.00000      -38.88889      6.1196915E-04 -0.4987716     -5.3741346E-04
  2.9273369E-04
  -50.00000      -27.77778      5.9421419E-04 -0.9225618     -3.5877465E-04
  4.7367840E-04
  -50.00000      -16.66667      6.0484518E-04  -1.246180     -1.9291227E-04
  5.7325611E-04
  -50.00000      -5.555557      6.2067615E-04  -1.420679     -9.2824499E-05
  6.1369577E-04
  -50.00000       5.555557      6.2067842E-04  -1.420699     -9.2812705E-05
  6.1369984E-04
  -50.00000       16.66666      6.0484943E-04  -1.246239     -1.9287984E-04
  5.7327148E-04
  -50.00000       27.77778      5.9421401E-04 -0.9226490     -3.5873323E-04
  4.7370954E-04
  -50.00000       38.88889      6.1196089E-04 -0.4988728     -5.3737656E-04
  2.9278413E-04
  -50.00000       50.00000      6.6697318E-04 -5.1034942E-02 -6.6610478E-04
  3.4024164E-05
  -38.88889      -50.00000      6.1196915E-04 -0.4987718     -5.3741341E-04
  2.9273384E-04
  -38.88889      -38.88889      5.9663097E-04  -1.080017     -2.8119999E-04
  5.2620820E-04
  -38.88889      -27.77778      6.4327242E-04  -1.597695      1.7301274E-05
  6.4303970E-04
  -38.88889      -16.66667      7.1831490E-04  -1.967806      2.7774528E-04
  6.6244538E-04
  -38.88889      -5.555557      7.7189947E-04  -2.157932      4.2761592E-04
  6.4263010E-04
  -38.88889       5.555557      7.7190658E-04  -2.157954      4.2763393E-04
  6.4262660E-04
  -38.88889       16.66666      7.1833096E-04  -1.967869      2.7779353E-04
  6.6244253E-04
  -38.88889       27.77778      6.4328755E-04  -1.597796      1.7366614E-05
  6.4305309E-04
  -38.88889       38.88889      5.9663469E-04  -1.080144     -2.8113497E-04
  5.2624720E-04
  -38.88889       50.00000      6.1195856E-04 -0.4989015     -5.3736614E-04
  2.9279842E-04
  -27.77778      -50.00000      5.9421442E-04 -0.9225619     -3.5877473E-04
  4.7367867E-04
  -27.77778      -38.88889      6.4327288E-04  -1.597695      1.7301278E-05
  6.4304017E-04
  -27.77778      -27.77778      7.7189208E-04  -2.157910      4.2759770E-04
  6.4263336E-04
  -27.77778      -16.66667      9.2569256E-04  -2.559475      7.7323115E-04
  5.0894037E-04
  -27.77778      -5.555557      1.0361631E-03  -2.782580      9.7010162E-04
  3.6405583E-04
  -27.77778       5.555557      1.0361769E-03  -2.782607      9.7012450E-04
  3.6403452E-04
  -27.77778       16.66666      9.2572707E-04  -2.559546      7.7329646E-04
  5.0890388E-04
  -27.77778       27.77778      7.7192805E-04  -2.158020      4.2768821E-04
  6.4261630E-04
  -27.77778       38.88889      6.4329332E-04  -1.597837      1.7392797E-05
  6.4305816E-04
  -27.77778       50.00000      5.9421378E-04 -0.9227180     -3.5870040E-04
  4.7373411E-04
  -16.66667      -50.00000      6.0484512E-04  -1.246180     -1.9291231E-04
  5.7325599E-04
  -16.66667      -38.88889      7.1831455E-04  -1.967806      2.7774536E-04
  6.6244492E-04
  -16.66667      -27.77778      9.2569273E-04  -2.559475      7.7323115E-04
  5.0894066E-04
  -16.66667      -16.66667      1.1917916E-03  -3.032290      1.1846795E-03
  1.3000691E-04
  -16.66667      -5.555557      1.4463406E-03   2.937984      1.4164638E-03
 -2.9245770E-04
  -16.66667       5.555557      1.4463825E-03   2.937941      1.4164923E-03
 -2.9252682E-04
  -16.66667       16.66666      1.1918553E-03  -3.032387      1.1847554E-03
  1.2989910E-04
  -16.66667       27.77778      9.2575006E-04  -2.559594      7.7333959E-04
  5.0888018E-04
  -16.66667       38.88889      7.1835163E-04  -1.967954      2.7785762E-04
  6.6243805E-04
  -16.66667       50.00000      6.0485781E-04  -1.246357     -1.9281518E-04
  5.7330210E-04
  -5.555557      -50.00000      6.2067603E-04  -1.420679     -9.2824557E-05
  6.1369565E-04
  -5.555557      -38.88889      7.7189965E-04  -2.157932      4.2761592E-04
  6.4263027E-04
  -5.555557      -27.77778      1.0361630E-03  -2.782580      9.7010157E-04
  3.6405571E-04
  -5.555557      -16.66667      1.4463408E-03   2.937984      1.4164640E-03
 -2.9245755E-04
  -5.555557      -5.555557      2.4816182E-03   2.306546      1.6655206E-03
 -1.8396928E-03
  -5.555557       5.555557      2.4819248E-03   2.306449      1.6655489E-03
 -1.8400811E-03
  -5.555557       16.66666      1.4464641E-03   2.937854      1.4165469E-03
 -2.9266567E-04
  -5.555557       27.77778      1.0362330E-03  -2.782715      9.7021629E-04
  3.6394940E-04
  -5.555557       38.88889      7.7194982E-04  -2.158086      4.2774269E-04
  6.4260617E-04
  -5.555557       50.00000      6.2069553E-04  -1.420858     -9.2717921E-05
  6.1373151E-04
   5.555557      -50.00000      6.2067813E-04  -1.420699     -9.2812734E-05
  6.1369955E-04
   5.555557      -38.88889      7.7190675E-04  -2.157954      4.2763402E-04
  6.4262678E-04
   5.555557      -27.77778      1.0361770E-03  -2.782607      9.7012456E-04
  3.6403467E-04
   5.555557      -16.66667      1.4463814E-03   2.937941      1.4164912E-03
 -2.9252656E-04
   5.555557      -5.555557      2.4819283E-03   2.306448      1.6655497E-03
 -1.8400849E-03
   5.555557       5.555557      2.4822417E-03   2.306350      1.6655785E-03
 -1.8404817E-03
   5.555557       16.66666      1.4465045E-03   2.937811      1.4165739E-03
 -2.9273477E-04
   5.555557       27.77778      1.0362470E-03  -2.782742      9.7023917E-04
  3.6392821E-04
   5.555557       38.88889      7.7195727E-04  -2.158108      4.2776071E-04
  6.4260315E-04
   5.555557       50.00000      6.2069762E-04  -1.420878     -9.2706032E-05
  6.1373541E-04
   16.66666      -50.00000      6.0484925E-04  -1.246239     -1.9287982E-04
  5.7327130E-04
   16.66666      -38.88889      7.1833062E-04  -1.967870      2.7779359E-04
  6.6244212E-04
   16.66666      -27.77778      9.2572696E-04  -2.559546      7.7329611E-04
  5.0890428E-04
   16.66666      -16.66667      1.1918547E-03  -3.032386      1.1847548E-03
  1.2989945E-04
   16.66666      -5.555557      1.4464634E-03   2.937854      1.4165463E-03
 -2.9266550E-04
   16.66666       5.555557      1.4465047E-03   2.937811      1.4165741E-03
 -2.9273465E-04
   16.66666       16.66666      1.1919182E-03  -3.032483      1.1848304E-03
  1.2979157E-04
   16.66666       27.77778      9.2578446E-04  -2.559665      7.7340467E-04
  5.0884392E-04
   16.66666       38.88889      7.1836729E-04  -1.968018      2.7790602E-04
  6.6243473E-04
   16.66666       50.00000      6.0486223E-04  -1.246416     -1.9278271E-04
  5.7331769E-04
   27.77778      -50.00000      5.9421459E-04 -0.9226493     -3.5873344E-04
  4.7371018E-04
   27.77778      -38.88889      6.4328790E-04  -1.597796      1.7366612E-05
  6.4305344E-04
   27.77778      -27.77778      7.7192858E-04  -2.158020      4.2768824E-04
  6.4261688E-04
   27.77778      -16.66667      9.2574948E-04  -2.559593      7.7333889E-04
  5.0888018E-04
   27.77778      -5.555557      1.0362332E-03  -2.782715      9.7021635E-04
  3.6394957E-04
   27.77778       5.555557      1.0362472E-03  -2.782742      9.7023946E-04
  3.6392829E-04
   27.77778       16.66666      9.2578423E-04  -2.559664      7.7340414E-04
  5.0884427E-04
   27.77778       27.77778      7.7196461E-04  -2.158129      4.2777869E-04
  6.4260000E-04
   27.77778       38.88889      6.4330839E-04  -1.597938      1.7458089E-05
  6.4307149E-04
   27.77778       50.00000      5.9421436E-04 -0.9228055     -3.5865928E-04
  4.7376601E-04
   38.88889      -50.00000      6.1196083E-04 -0.4988726     -5.3737656E-04
  2.9278401E-04
   38.88889      -38.88889      5.9663499E-04  -1.080144     -2.8113506E-04
  5.2624749E-04
   38.88889      -27.77778      6.4329366E-04  -1.597837      1.7392746E-05
  6.4305851E-04
   38.88889      -16.66667      7.1835140E-04  -1.967954      2.7785756E-04
  6.6243787E-04
   38.88889      -5.555557      7.7195017E-04  -2.158086      4.2774269E-04
  6.4260664E-04
   38.88889       5.555557      7.7195716E-04  -2.158108      4.2776071E-04
  6.4260303E-04
   38.88889       16.66666      7.1836699E-04  -1.968018      2.7790607E-04
  6.6243444E-04
   38.88889       27.77778      6.4330851E-04  -1.597938      1.7458085E-05
  6.4307160E-04
   38.88889       38.88889      5.9663941E-04  -1.080272     -2.8107010E-04
  5.2628719E-04
   38.88889       50.00000      6.1195041E-04 -0.4990019     -5.3732959E-04
  2.9284850E-04
   50.00000      -50.00000      6.6697283E-04 -5.1034976E-02 -6.6610443E-04
  3.4024168E-05
   50.00000      -38.88889      6.1195850E-04 -0.4989015     -5.3736608E-04
  2.9279839E-04
   50.00000      -27.77778      5.9421430E-04 -0.9227188     -3.5870034E-04
  4.7373484E-04
   50.00000      -16.66667      6.0485787E-04  -1.246357     -1.9281528E-04
  5.7330210E-04
   50.00000      -5.555557      6.2069547E-04  -1.420858     -9.2717957E-05
  6.1373139E-04
   50.00000       5.555557      6.2069762E-04  -1.420877     -9.2706076E-05
  6.1373541E-04
   50.00000       16.66666      6.0486217E-04  -1.246416     -1.9278277E-04
  5.7331758E-04
   50.00000       27.77778      5.9421413E-04 -0.9228055     -3.5865913E-04
  4.7376580E-04
   50.00000       38.88889      6.1195029E-04 -0.4990022     -5.3732941E-04
  2.9284859E-04
   50.00000       50.00000      6.6695747E-04 -5.1134121E-02 -6.6608569E-04
  3.4089422E-05
           1           2          12          11
           2           3          13          12
           3           4          14          13
           4           5          15          14
           5           6          16          15
           6           7          17          16
           7           8          18          17
           8           9          19          18
           9          10          20          19
          11          12          22          21
          12          13          23          22
          13          14          24          23
          14          15          25          24
          15          16          26          25
          16          17          27          26
          17          18          28          27
          18          19          29          28
          19          20          30          29
          21          22          32          31
          22          23          33          32
          23          24          34          33
          24          25          35          34
          25          26          36          35
          26          27          37          36
          27          28          38          37
          28          29          39          38
          29          30          40          39
          31          32          42          41
          32          33          43          42
          33          34          44          43
          34          35          45          44
          35          36          46          45
          36          37          47          46
          37          38          48          47
          38          39          49          48
          39          40          50          49
          41          42          52          51
          42          43          53          52
          43          44          54          53
          44          45          55          54
          45          46          56          55
          46          47          57          56
          47          48          58          57
          48          49          59          58
          49          50          60          59
          51          52          62          61
          52          53          63          62
          53          54          64          63
          54          55          65          64
          55          56          66          65
          56          57          67          66
          57          58          68          67
          58          59          69          68
          59          60          70          69
          61          62          72          71
          62          63          73          72
          63          64          74          73
          64          65          75          74
          65          66          76          75
          66          67          77          76
          67          68          78          77
          68          69          79          78
          69          70          80          79
          71          72          82          81
          72          73          83          82
          73          74          84          83
          74          75          85          84
          75          76          86          85
          76          77          87          86
          77          78          88          87
          78          79          89          88
          79          80          90          89
          81          82          92          91
          82          83          93          92
          83          84          94          93
          84          85          95          94
          85          86          96          95
          86          87          97          96
          87          88          98          97
          88          89          99          98
          89          90         100          99
