 VARIABLES="X" "Y" "abs(eta) (m)" "angle(phi) (rad)" "PRE1" "PRE2"
ZONE N=    100 ,E =      81 ,F=FEPOINT,ET=QUADRILATERAL
  -50.00000      -50.00000      1.1803075E-06   2.844481      1.1285938E-06
 -3.4554591E-07
  -50.00000      -38.88889      1.0910610E-06   2.693668      9.8342559E-07
 -4.7253383E-07
  -50.00000      -27.77778      9.0052379E-07   2.526957      7.3571306E-07
 -5.1929703E-07
  -50.00000      -16.66667      6.1438044E-07   2.419314      4.6097043E-07
 -4.0616450E-07
  -50.00000      -5.555557      2.2140175E-07   2.396111      1.6267744E-07
 -1.5018252E-07
  -50.00000       5.555557      2.0356934E-07 -0.6850477     -1.5764184E-07
  1.2880035E-07
  -50.00000       16.66666      5.9625916E-07 -0.6994640     -4.5624998E-07
  3.8387617E-07
  -50.00000       27.77778      8.8484080E-07 -0.5977944     -7.3139080E-07
  4.9800673E-07
  -50.00000       38.88889      1.0791540E-06 -0.4325770     -9.7975146E-07
  4.5239415E-07
  -50.00000       50.00000      1.1719355E-06 -0.2816575     -1.1257566E-06
  3.2573737E-07
  -38.88889      -50.00000      1.4009711E-06   2.695424      1.2638255E-06
 -6.0453698E-07
  -38.88889      -38.88889      1.3341020E-06   2.474257      1.0479014E-06
 -8.2566987E-07
  -38.88889      -27.77778      1.1769552E-06   2.332056      8.1190336E-07
 -8.5207762E-07
  -38.88889      -16.66667      8.9420899E-07   2.166475      5.0171434E-07
 -7.4019755E-07
  -38.88889      -5.555557      3.0369671E-07   2.184681      1.7494358E-07
 -2.4824672E-07
  -38.88889       5.555557      2.8167059E-07 -0.9265414     -1.6917218E-07
  2.2520902E-07
  -38.88889       16.66666      8.7033578E-07 -0.9642115     -4.9614783E-07
  7.1506759E-07
  -38.88889       27.77778      1.1574941E-06 -0.7995649     -8.0679513E-07
  8.2998446E-07
  -38.88889       38.88889      1.3176066E-06 -0.6568094     -1.0434711E-06
  8.0452162E-07
  -38.88889       50.00000      1.3893174E-06 -0.4343665     -1.2603009E-06
  5.8467452E-07
  -27.77778      -50.00000      1.6142606E-06   2.530853      1.3224410E-06
 -9.2573595E-07
  -27.77778      -38.88889      1.6435005E-06   2.333592      1.1355685E-06
 -1.1880985E-06
  -27.77778      -27.77778      1.4745237E-06   2.196055      8.6304959E-07
 -1.1955608E-06
  -27.77778      -16.66667      1.4181020E-06   1.960567      5.3884577E-07
 -1.3117387E-06
  -27.77778      -5.555557      6.9571422E-07   1.838769      1.8420923E-07
 -6.7088394E-07
  -27.77778       5.555557      6.5812083E-07  -1.297359     -1.7772072E-07
  6.3367054E-07
  -27.77778       16.66666      1.3891760E-06  -1.177320     -5.3261238E-07
  1.2830175E-06
  -27.77778       27.77778      1.4525209E-06 -0.9394097     -8.5737173E-07
  1.1724891E-06
  -27.77778       38.88889      1.6247081E-06 -0.8011874     -1.1305603E-06
  1.1668375E-06
  -27.77778       50.00000      1.5993712E-06 -0.6018115     -1.3183800E-06
  9.0546257E-07
  -16.66667      -50.00000      1.8241386E-06   2.427079      1.3779759E-06
 -1.1952674E-06
  -16.66667      -38.88889      2.0691364E-06   2.169915      1.1668164E-06
 -1.7087611E-06
  -16.66667      -27.77778      2.3521120E-06   1.961572      8.9593362E-07
 -2.1747951E-06
  -16.66667      -16.66667      1.6350490E-06   1.924404      5.6619172E-07
 -1.5338879E-06
  -16.66667      -5.555557      2.2818269E-06   1.655527      1.9311025E-07
 -2.2736408E-06
  -16.66667       5.555557      2.2201009E-06  -1.486838     -1.8617601E-07
  2.2122808E-06
  -16.66667       16.66666      1.6066876E-06  -1.215064     -5.5957281E-07
  1.5060955E-06
  -16.66667       27.77778      2.3268901E-06  -1.178364     -8.8988963E-07
  2.1500032E-06
  -16.66667       38.88889      2.0482041E-06 -0.9678329     -1.1615074E-06
  1.6870212E-06
  -16.66667       50.00000      1.8075581E-06 -0.7074720     -1.3737573E-06
  1.1747584E-06
  -5.555557      -50.00000      1.9196091E-06   2.421961      1.4436389E-06
 -1.2652295E-06
  -5.555557      -38.88889      2.0589150E-06   2.197212      1.2070286E-06
 -1.6679966E-06
  -5.555557      -27.77778      3.3963211E-06   1.841413      9.0792236E-07
 -3.2727166E-06
  -5.555557      -16.66667      6.7684618E-06   1.655454      5.7231739E-07
 -6.7442220E-06
  -5.555557      -5.555557      2.0735821E-05   1.580335      1.9779611E-07
 -2.0734877E-05
  -5.555557       5.555557      2.0688378E-05  -1.561574     -1.9079249E-07
  2.0687497E-05
  -5.555557       16.66666      6.7392157E-06  -1.486777     -5.6555677E-07
  6.7154429E-06
  -5.555557       27.77778      3.3732656E-06  -1.300197     -9.0170414E-07
  3.2505154E-06
  -5.555557       38.88889      2.0379255E-06 -0.9401748     -1.2016563E-06
  1.6459534E-06
  -5.555557       50.00000      1.9034612E-06 -0.7135248     -1.4391301E-06
  1.2458207E-06
   5.555557      -50.00000      1.9194404E-06   2.422013      1.4435777E-06
 -1.2650432E-06
   5.555557      -38.88889      2.0582199E-06   2.197404      1.2069402E-06
 -1.6672027E-06
   5.555557      -27.77778      3.3930157E-06   1.841668      9.0787444E-07
 -3.2692997E-06
   5.555557      -16.66667      6.7542874E-06   1.655620      5.7223696E-07
 -6.7300030E-06
   5.555557      -5.555557      2.0703294E-05   1.580348      1.9774630E-07
 -2.0702350E-05
   5.555557       5.555557      2.0762227E-05  -1.561602     -1.9088343E-07
  2.0761350E-05
   5.555557       16.66666      6.7552332E-06  -1.486960     -5.6567376E-07
  6.7315073E-06
   5.555557       27.77778      3.3768931E-06  -1.300473     -9.0177610E-07
  3.2542598E-06
   5.555557       38.88889      2.0381096E-06 -0.9401845     -1.2017490E-06
  1.6461136E-06
   5.555557       50.00000      1.9036678E-06 -0.7135988     -1.4391941E-06
  1.2460624E-06
   16.66666      -50.00000      1.8233975E-06   2.427464      1.3778757E-06
 -1.1942517E-06
   16.66666      -38.88889      2.0671603E-06   2.170465      1.1666402E-06
 -1.7064883E-06
   16.66666      -27.77778      2.3472762E-06   1.962316      8.9570597E-07
 -2.1696580E-06
   16.66666      -16.66667      1.6259512E-06   1.926331      5.6597941E-07
 -1.5242653E-06
   16.66666      -5.555557      2.2375955E-06   1.657114      1.9290349E-07
 -2.2292650E-06
   16.66666       5.555557      2.2661782E-06  -1.488444     -1.8641398E-07
  2.2584979E-06
   16.66666       16.66666      1.6179366E-06  -1.217541     -5.5973220E-07
  1.5180312E-06
   16.66666       27.77778      2.3322680E-06  -1.179253     -8.9002998E-07
  2.1557646E-06
   16.66666       38.88889      2.0503471E-06 -0.9684513     -1.1616783E-06
  1.6895049E-06
   16.66666       50.00000      1.8083119E-06 -0.7077845     -1.3739630E-06
  1.1756777E-06
   27.77778      -50.00000      1.6134028E-06   2.531307      1.3221588E-06
 -9.2464290E-07
   27.77778      -38.88889      1.6420050E-06   2.334197      1.1352529E-06
 -1.1863310E-06
   27.77778      -27.77778      1.4714710E-06   2.197345      8.6280011E-07
 -1.1919744E-06
   27.77778      -16.66667      1.4098677E-06   1.962691      5.3848493E-07
 -1.3029814E-06
   27.77778      -5.555557      6.7853313E-07   1.845195      1.8386093E-07
 -6.5314805E-07
   27.77778       5.555557      6.7559131E-07  -1.304017     -1.7810375E-07
  6.5169218E-07
   27.77778       16.66666      1.3979670E-06  -1.179673     -5.3294258E-07
  1.2923947E-06
   27.77778       27.77778      1.4536962E-06 -0.9396612     -8.5777026E-07
  1.1736536E-06
   27.77778       38.88889      1.6264075E-06 -0.8018879     -1.1309244E-06
  1.1688505E-06
   27.77778       50.00000      1.6002971E-06 -0.6023510     -1.3186542E-06
  9.0669829E-07
   38.88889      -50.00000      1.4002910E-06   2.695812      1.2634465E-06
 -6.0375322E-07
   38.88889      -38.88889      1.3326226E-06   2.475163      1.0474862E-06
 -8.2380552E-07
   38.88889      -27.77778      1.1748403E-06   2.333270      8.1147692E-07
 -8.4956173E-07
   38.88889      -16.66667      8.8946331E-07   2.169521      5.0129188E-07
 -7.3474581E-07
   38.88889      -5.555557      3.0071851E-07   2.189820      1.7448893E-07
 -2.4491882E-07
   38.88889       5.555557      2.8452146E-07 -0.9322731     -1.6957770E-07
  2.2846413E-07
   38.88889       16.66666      8.7525831E-07 -0.9674829     -4.9659889E-07
  7.2074033E-07
   38.88889       27.77778      1.1597892E-06 -0.8009478     -8.0724402E-07
  8.3274739E-07
   38.88889       38.88889      1.3192019E-06 -0.6578270     -1.0439144E-06
  8.0655843E-07
   38.88889       50.00000      1.3900487E-06 -0.4348548     -1.2606786E-06
  5.8559800E-07
   50.00000      -50.00000      1.1796908E-06   2.845042      1.1281976E-06
 -3.4473248E-07
   50.00000      -38.88889      1.0901969E-06   2.694325      9.8295675E-07
 -4.7151389E-07
   50.00000      -27.77778      8.9892222E-07   2.528460      7.3518299E-07
 -5.1726892E-07
   50.00000      -16.66667      6.1204628E-07   2.422406      4.6046793E-07
 -4.0319961E-07
   50.00000      -5.555557      2.1966490E-07   2.400681      1.6208047E-07
 -1.4826526E-07
   50.00000       5.555557      2.0523866E-07 -0.6908139     -1.5818311E-07
  1.3077083E-07
   50.00000       16.66666      5.9851914E-07 -0.7025444     -4.5679016E-07
  3.8674011E-07
   50.00000       27.77778      8.8649574E-07 -0.5994760     -7.3191870E-07
  5.0016968E-07
   50.00000       38.88889      1.0801226E-06 -0.4333543     -9.8027863E-07
  4.5356234E-07
   50.00000       50.00000      1.1726469E-06 -0.2823055     -1.1262285E-06
  3.2666503E-07
           1           2          12          11
           2           3          13          12
           3           4          14          13
           4           5          15          14
           5           6          16          15
           6           7          17          16
           7           8          18          17
           8           9          19          18
           9          10          20          19
          11          12          22          21
          12          13          23          22
          13          14          24          23
          14          15          25          24
          15          16          26          25
          16          17          27          26
          17          18          28          27
          18          19          29          28
          19          20          30          29
          21          22          32          31
          22          23          33          32
          23          24          34          33
          24          25          35          34
          25          26          36          35
          26          27          37          36
          27          28          38          37
          28          29          39          38
          29          30          40          39
          31          32          42          41
          32          33          43          42
          33          34          44          43
          34          35          45          44
          35          36          46          45
          36          37          47          46
          37          38          48          47
          38          39          49          48
          39          40          50          49
          41          42          52          51
          42          43          53          52
          43          44          54          53
          44          45          55          54
          45          46          56          55
          46          47          57          56
          47          48          58          57
          48          49          59          58
          49          50          60          59
          51          52          62          61
          52          53          63          62
          53          54          64          63
          54          55          65          64
          55          56          66          65
          56          57          67          66
          57          58          68          67
          58          59          69          68
          59          60          70          69
          61          62          72          71
          62          63          73          72
          63          64          74          73
          64          65          75          74
          65          66          76          75
          66          67          77          76
          67          68          78          77
          68          69          79          78
          69          70          80          79
          71          72          82          81
          72          73          83          82
          73          74          84          83
          74          75          85          84
          75          76          86          85
          76          77          87          86
          77          78          88          87
          78          79          89          88
          79          80          90          89
          81          82          92          91
          82          83          93          92
          83          84          94          93
          84          85          95          94
          85          86          96          95
          86          87          97          96
          87          88          98          97
          88          89          99          98
          89          90         100          99
