 VARIABLES="X" "Y" "abs(eta) (m)" "angle(phi) (rad)" "PRE1" "PRE2"
ZONE N=    100 ,E =      81 ,F=FEPOINT,ET=QUADRILATERAL
  -50.00000      -50.00000      3.5025080E-06   2.225986      2.1341116E-06
 -2.7772521E-06
  -50.00000      -38.88889      4.2900929E-06   2.101233      2.1704031E-06
 -3.7005739E-06
  -50.00000      -27.77778      4.3099581E-06   2.128198      2.2798940E-06
 -3.6575707E-06
  -50.00000      -16.66667      5.5895907E-06   1.991788      2.2842723E-06
 -5.1015318E-06
  -50.00000      -5.555557      6.4008882E-06   1.936420      2.2885206E-06
 -5.9777958E-06
  -50.00000       5.555557      6.4029241E-06   1.936293      2.2884917E-06
 -5.9799868E-06
  -50.00000       16.66666      5.5932915E-06   1.991503      2.2843299E-06
 -5.1055604E-06
  -50.00000       27.77778      4.3106675E-06   2.128145      2.2800768E-06
 -3.6582924E-06
  -50.00000       38.88889      4.2964248E-06   2.100445      2.1706819E-06
 -3.7077496E-06
  -50.00000       50.00000      3.5068915E-06   2.225157      2.1344763E-06
 -2.7824988E-06
  -38.88889      -50.00000      3.2625790E-06   2.085511      1.6061238E-06
 -2.8398570E-06
  -38.88889      -38.88889      3.7280477E-06   2.040108      1.6860927E-06
 -3.3249707E-06
  -38.88889      -27.77778      5.6331096E-06   1.875725      1.6912003E-06
 -5.3732451E-06
  -38.88889      -16.66667      7.5939988E-06   1.797006      1.7032220E-06
 -7.4005306E-06
  -38.88889      -5.555557      8.9342248E-06   1.763810      1.7137373E-06
 -8.7683220E-06
  -38.88889       5.555557      8.9406676E-06   1.763662      1.7136814E-06
 -8.7748977E-06
  -38.88889       16.66666      7.6091637E-06   1.796553      1.7032650E-06
 -7.4160812E-06
  -38.88889       27.77778      5.6472936E-06   1.874998      1.6915430E-06
 -5.3880058E-06
  -38.88889       38.88889      3.7326436E-06   2.039620      1.6865459E-06
 -3.3298934E-06
  -38.88889       50.00000      3.2707869E-06   2.084252      1.6065798E-06
 -2.8490258E-06
  -27.77778      -50.00000      2.2315107E-06   2.082761      1.0931959E-06
 -1.9453953E-06
  -27.77778      -38.88889      3.9134197E-06   1.852564      1.0881409E-06
 -3.7590960E-06
  -27.77778      -27.77778      6.2464369E-06   1.747467      1.0978276E-06
 -6.1492074E-06
  -27.77778      -16.66667      8.5013226E-06   1.703514      1.1249625E-06
 -8.4265621E-06
  -27.77778      -5.555557      1.4201279E-05   1.650120      1.1253150E-06
 -1.4156623E-05
  -27.77778       5.555557      1.4221980E-05   1.650001      1.1252655E-06
 -1.4177393E-05
  -27.77778       16.66666      8.5313040E-06   1.703055      1.1250553E-06
 -8.4567964E-06
  -27.77778       27.77778      6.2790655E-06   1.746578      1.0980685E-06
 -6.1823062E-06
  -27.77778       38.88889      3.9331662E-06   1.851212      1.0885227E-06
 -3.7795389E-06
  -27.77778       50.00000      2.2326501E-06   2.082717      1.0936701E-06
 -1.9464358E-06
  -16.66667      -50.00000      1.6243301E-06   1.878239      4.9155835E-07
 -1.5481663E-06
  -16.66667      -38.88889      3.0166736E-06   1.731152      4.8167021E-07
 -2.9779715E-06
  -16.66667      -27.77778      4.9003688E-06   1.671370      4.9201788E-07
 -4.8756060E-06
  -16.66667      -16.66667      3.2960033E-06   1.721714      4.9553893E-07
 -3.2585394E-06
  -16.66667      -5.555557      3.3916211E-05   1.585292      4.9161031E-07
 -3.3912649E-05
  -16.66667       5.555557      3.4007862E-05   1.585254      4.9165914E-07
 -3.4004308E-05
  -16.66667       16.66666      3.3594486E-06   1.718859      4.9559253E-07
 -3.3226920E-06
  -16.66667       27.77778      4.9496016E-06   1.670418      4.9227049E-07
 -4.9250611E-06
  -16.66667       38.88889      3.0519554E-06   1.729367      4.8192442E-07
 -3.0136657E-06
  -16.66667       50.00000      1.6357263E-06   1.876343      4.9205079E-07
 -1.5599637E-06
  -5.555557      -50.00000      4.5732597E-07   1.323183     -1.1208638E-07
 -4.4337759E-07
  -5.555557      -38.88889      9.4053740E-07   1.427980     -1.3386806E-07
 -9.3096185E-07
  -5.555557      -27.77778      2.4010237E-06   1.509514     -1.4704858E-07
 -2.3965165E-06
  -5.555557      -16.66667      1.0680020E-05   1.556127     -1.5666561E-07
 -1.0678871E-05
  -5.555557      -5.555557      1.1765833E-04   1.569424     -1.6145253E-07
 -1.1765822E-04
  -5.555557       5.555557      1.1809429E-04   1.569430     -1.6138351E-07
 -1.1809418E-04
  -5.555557       16.66666      1.0944637E-05   1.556491     -1.5655607E-07
 -1.0943518E-05
  -5.555557       27.77778      2.5019165E-06   1.512075     -1.4683026E-07
 -2.4976043E-06
  -5.555557       38.88889      9.8582939E-07   1.434988     -1.3347267E-07
 -9.7675206E-07
  -5.555557       50.00000      4.7492182E-07   1.333596     -1.1159845E-07
 -4.6162378E-07
   5.555557      -50.00000      1.1778662E-06 -0.9215434     -7.1212799E-07
  9.3821251E-07
   5.555557      -38.88889      1.8351905E-06  -1.149879     -7.4985445E-07
  1.6750051E-06
   5.555557      -27.77778      3.5510336E-06  -1.348433     -7.8312991E-07
  3.4636032E-06
   5.555557      -16.66667      1.2496866E-05  -1.506343     -8.0490895E-07
  1.2470918E-05
   5.555557      -5.555557      1.2116476E-04  -1.564062     -8.1590412E-07
  1.2116201E-04
   5.555557       5.555557      1.2099207E-04  -1.564053     -8.1589201E-07
  1.2098932E-04
   5.555557       16.66666      1.2243202E-05  -1.505014     -8.0480254E-07
  1.2216722E-05
   5.555557       27.77778      3.4538136E-06  -1.342125     -7.8292305E-07
  3.3639055E-06
   5.555557       38.88889      1.7936512E-06  -1.139717     -7.4947945E-07
  1.6295598E-06
   5.555557       50.00000      1.1633217E-06 -0.9125313     -7.1165658E-07
  9.2025124E-07
   16.66666      -50.00000      2.3871430E-06 -0.9943923     -1.3010227E-06
  2.0014475E-06
   16.66666      -38.88889      3.8834742E-06  -1.215651     -1.3503861E-06
  3.6411300E-06
   16.66666      -27.77778      5.9194017E-06  -1.330879     -1.4065793E-06
  5.7498564E-06
   16.66666      -16.66667      4.7190742E-06  -1.260447     -1.4411634E-06
  4.4936301E-06
   16.66666      -5.555557      3.5576530E-05  -1.529941     -1.4530884E-06
  3.5546844E-05
   16.66666       5.555557      3.5495294E-05  -1.529851     -1.4529559E-06
  3.5465542E-05
   16.66666       16.66666      4.6704049E-06  -1.257138     -1.4410073E-06
  4.4425419E-06
   16.66666       27.77778      5.8741784E-06  -1.329053     -1.4062507E-06
  5.7033703E-06
   16.66666       38.88889      3.8506059E-06  -1.212589     -1.3500082E-06
  3.6061952E-06
   16.66666       50.00000      2.3775317E-06 -0.9919422     -1.3006646E-06
  1.9902081E-06
   27.77778      -50.00000      2.9935964E-06 -0.8946188     -1.8734411E-06
  2.3349171E-06
   27.77778      -38.88889      4.7102940E-06  -1.149298     -1.9271115E-06
  4.2980355E-06
   27.77778      -27.77778      7.1603954E-06  -1.290419     -1.9814090E-06
  6.8807908E-06
   27.77778      -16.66667      9.5048563E-06  -1.354537     -2.0395323E-06
  9.2834589E-06
   27.77778      -5.555557      1.5286125E-05  -1.435938     -2.0552216E-06
  1.5147332E-05
   27.77778       5.555557      1.5266987E-05  -1.435776     -2.0550931E-06
  1.5128037E-05
   27.77778       16.66666      9.4781171E-06  -1.353943     -2.0392893E-06
  9.2561331E-06
   27.77778       27.77778      7.1294949E-06  -1.289202     -1.9811946E-06
  6.8486906E-06
   27.77778       38.88889      4.6923815E-06  -1.147669     -1.9267559E-06
  4.2785578E-06
   27.77778       50.00000      2.9930102E-06 -0.8946531     -1.8729939E-06
  2.3345242E-06
   38.88889      -50.00000      3.9489473E-06 -0.9355110     -2.3433338E-06
  3.1785173E-06
   38.88889      -38.88889      4.4900899E-06 -0.9853936     -2.4809322E-06
  3.7424436E-06
   38.88889      -27.77778      6.4259193E-06  -1.166102     -2.5301249E-06
  5.9068525E-06
   38.88889      -16.66667      8.4454059E-06  -1.261369     -2.5717402E-06
  8.0443169E-06
   38.88889      -5.555557      9.8238861E-06  -1.303249     -2.5971106E-06
  9.4743737E-06
   38.88889       5.555557      9.8178352E-06  -1.303073     -2.5971756E-06
  9.4680818E-06
   38.88889       16.66666      8.4314170E-06  -1.260870     -2.5714892E-06
  8.0297095E-06
   38.88889       27.77778      6.4132223E-06  -1.165305     -2.5298280E-06
  5.8931646E-06
   38.88889       38.88889      4.4865546E-06 -0.9849509     -2.4806341E-06
  3.7383991E-06
   38.88889       50.00000      3.9416127E-06 -0.9342800     -2.3428852E-06
  3.1697321E-06
   50.00000      -50.00000      4.1384164E-06 -0.8222259     -2.8165734E-06
  3.0320630E-06
   50.00000      -38.88889      4.9752725E-06 -0.9466887     -2.9074170E-06
  4.0373584E-06
   50.00000      -27.77778      5.0738531E-06 -0.9234146     -3.0600404E-06
  4.0472382E-06
   50.00000      -16.66667      6.3520506E-06  -1.062134     -3.0935068E-06
  5.5478608E-06
   50.00000      -5.555557      7.1684672E-06  -1.121689     -3.1122729E-06
  6.4576061E-06
   50.00000       5.555557      7.1667591E-06  -1.121559     -3.1123677E-06
  6.4556643E-06
   50.00000       16.66666      6.3488828E-06  -1.061887     -3.0933329E-06
  5.5443311E-06
   50.00000       27.77778      5.0736662E-06 -0.9234621     -3.0597357E-06
  4.0472341E-06
   50.00000       38.88889      4.9697101E-06 -0.9459360     -2.9072007E-06
  4.0306577E-06
   50.00000       50.00000      4.1346107E-06 -0.8214965     -2.8161921E-06
  3.0272213E-06
           1           2          12          11
           2           3          13          12
           3           4          14          13
           4           5          15          14
           5           6          16          15
           6           7          17          16
           7           8          18          17
           8           9          19          18
           9          10          20          19
          11          12          22          21
          12          13          23          22
          13          14          24          23
          14          15          25          24
          15          16          26          25
          16          17          27          26
          17          18          28          27
          18          19          29          28
          19          20          30          29
          21          22          32          31
          22          23          33          32
          23          24          34          33
          24          25          35          34
          25          26          36          35
          26          27          37          36
          27          28          38          37
          28          29          39          38
          29          30          40          39
          31          32          42          41
          32          33          43          42
          33          34          44          43
          34          35          45          44
          35          36          46          45
          36          37          47          46
          37          38          48          47
          38          39          49          48
          39          40          50          49
          41          42          52          51
          42          43          53          52
          43          44          54          53
          44          45          55          54
          45          46          56          55
          46          47          57          56
          47          48          58          57
          48          49          59          58
          49          50          60          59
          51          52          62          61
          52          53          63          62
          53          54          64          63
          54          55          65          64
          55          56          66          65
          56          57          67          66
          57          58          68          67
          58          59          69          68
          59          60          70          69
          61          62          72          71
          62          63          73          72
          63          64          74          73
          64          65          75          74
          65          66          76          75
          66          67          77          76
          67          68          78          77
          68          69          79          78
          69          70          80          79
          71          72          82          81
          72          73          83          82
          73          74          84          83
          74          75          85          84
          75          76          86          85
          76          77          87          86
          77          78          88          87
          78          79          89          88
          79          80          90          89
          81          82          92          91
          82          83          93          92
          83          84          94          93
          84          85          95          94
          85          86          96          95
          86          87          97          96
          87          88          98          97
          88          89          99          98
          89          90         100          99
