 VARIABLES="X" "Y" "abs(eta) (m)" "angle(phi) (rad)" "PRE1" "PRE2"
ZONE N=    100 ,E =      81 ,F=FEPOINT,ET=QUADRILATERAL
  -50.00000      -50.00000      1.1227874E-06   1.734689      1.8319349E-07
 -1.1077417E-06
  -50.00000      -38.88889      9.7418786E-07   1.765669      1.8864283E-07
 -9.5574887E-07
  -50.00000      -27.77778      1.6527019E-06   1.684102      1.8685976E-07
 -1.6421045E-06
  -50.00000      -16.66667      2.2522834E-06   1.653440      1.8592463E-07
 -2.2445963E-06
  -50.00000      -5.555557      2.6176303E-06   1.641747      1.8556626E-07
 -2.6110445E-06
  -50.00000       5.555557      2.6195430E-06   1.641720      1.8563310E-07
 -2.6129574E-06
  -50.00000       16.66666      2.2569072E-06   1.653279      1.8594480E-07
 -2.2492343E-06
  -50.00000       27.77778      1.6570416E-06   1.683804      1.8685998E-07
 -1.6464720E-06
  -50.00000       38.88889      9.7507427E-07   1.765530      1.8868248E-07
 -9.5664450E-07
  -50.00000       50.00000      1.1276460E-06   1.734039      1.8326377E-07
 -1.1126544E-06
  -38.88889      -50.00000      6.9727525E-07   1.721040      1.0436774E-07
 -6.8942018E-07
  -38.88889      -38.88889      1.4400324E-06   1.641384      1.0156470E-07
 -1.4364463E-06
  -38.88889      -27.77778      2.2917923E-06   1.614503      1.0013387E-07
 -2.2896036E-06
  -38.88889      -16.66667      5.4518227E-07   1.758570      1.0177047E-07
 -5.3559916E-07
  -38.88889      -5.555557      2.1431124E-06   1.617936      1.0098790E-07
 -2.1407318E-06
  -38.88889       5.555557      2.1450244E-06   1.617917      1.0103664E-07
 -2.1426436E-06
  -38.88889       16.66666      5.4334487E-07   1.759301      1.0181766E-07
 -5.3371980E-07
  -38.88889       27.77778      2.3038201E-06   1.614302      1.0019833E-07
 -2.3016401E-06
  -38.88889       38.88889      1.4482267E-06   1.641067      1.0168436E-07
 -1.4446525E-06
  -38.88889       50.00000      6.9818975E-07   1.720848      1.0437173E-07
 -6.9034445E-07
  -27.77778      -50.00000      7.9589864E-07   1.592998      1.7668890E-08
 -7.9570248E-07
  -27.77778      -38.88889      1.5482406E-06   1.580441      1.4932363E-08
 -1.5481686E-06
  -27.77778      -27.77778      1.4336691E-06   1.581032      1.4674303E-08
 -1.4335940E-06
  -27.77778      -16.66667      4.8089355E-06   1.573528      1.3134178E-08
 -4.8089178E-06
  -27.77778      -5.555557      7.5776547E-06   1.572453      1.2556826E-08
 -7.5776443E-06
  -27.77778       5.555557      7.5933290E-06   1.572453      1.2576010E-08
 -7.5933185E-06
  -27.77778       16.66666      4.8374295E-06   1.573516      1.3154176E-08
 -4.8374118E-06
  -27.77778       27.77778      1.4430713E-06   1.580977      1.4690680E-08
 -1.4429964E-06
  -27.77778       38.88889      1.5650601E-06   1.580362      1.4970384E-08
 -1.5649885E-06
  -27.77778       50.00000      8.0357188E-07   1.592838      1.7710779E-08
 -8.0337668E-07
  -16.66667      -50.00000      5.6563738E-07   1.449188     -6.8616814E-08
 -5.6146001E-07
  -16.66667      -38.88889      8.8124096E-08  0.6390741     -7.0732661E-08
 -5.2561838E-08
  -16.66667      -27.77778      2.7258936E-06   1.543854     -7.3431949E-08
 -2.7249043E-06
  -16.66667      -16.66667      5.2527689E-06   1.556576     -7.4694277E-08
 -5.2522378E-06
  -16.66667      -5.555557      1.7253393E-05   1.566419     -7.5518415E-08
 -1.7253227E-05
  -16.66667       5.555557      1.7312606E-05   1.566437     -7.5473039E-08
 -1.7312443E-05
  -16.66667       16.66666      5.3195281E-06   1.556761     -7.4660903E-08
 -5.3190042E-06
  -16.66667       27.77778      2.7728806E-06   1.544310     -7.3433846E-08
 -2.7719082E-06
  -16.66667       38.88889      8.5217749E-08  0.5926613     -7.0684472E-08
 -4.7600114E-08
  -16.66667       50.00000      5.7917350E-07   1.452119     -6.8573733E-08
 -5.7509965E-07
  -5.555557      -50.00000      1.5782362E-07  0.2066610     -1.5446537E-07
 -3.2384321E-08
  -5.555557      -38.88889      1.5995306E-07  0.1568624     -1.5798921E-07
 -2.4987850E-08
  -5.555557      -27.77778      1.1636974E-06   1.432036     -1.6095750E-07
 -1.1525123E-06
  -5.555557      -16.66667      5.2708051E-06   1.539898     -1.6283084E-07
 -5.2682894E-06
  -5.555557      -5.555557      9.5167154E-05   1.569076     -1.6372842E-07
 -9.5167015E-05
  -5.555557       5.555557      9.5441392E-05   1.569081     -1.6371335E-07
 -9.5441254E-05
  -5.555557       16.66666      5.4670045E-06   1.541015     -1.6279262E-07
 -5.4645802E-06
  -5.555557       27.77778      1.2402187E-06   1.440676     -1.6092220E-07
 -1.2297343E-06
  -5.555557       38.88889      1.6229555E-07  0.2327805     -1.5791824E-07
 -3.7438973E-08
  -5.555557       50.00000      1.6219138E-07  0.3110101     -1.5441024E-07
 -4.9633876E-08
   5.555557      -50.00000      6.5565223E-07  -1.196919     -2.3946205E-07
  6.1035871E-07
   5.555557      -38.88889      7.2129450E-07  -1.225242     -2.4431597E-07
  6.7865710E-07
   5.555557      -27.77778      2.0598693E-06  -1.450256     -2.4769622E-07
  2.0449224E-06
   5.555557      -16.66667      6.6423509E-06  -1.533127     -2.5015626E-07
  6.6376388E-06
   5.555557      -5.555557      9.7671429E-05  -1.568223     -2.5136154E-07
  9.7671109E-05
   5.555557       5.555557      9.7551027E-05  -1.568220     -2.5130521E-07
  9.7550706E-05
   5.555557       16.66666      6.4171309E-06  -1.531811     -2.5011283E-07
  6.4122551E-06
   5.555557       27.77778      1.9839074E-06  -1.445618     -2.4769358E-07
  1.9683841E-06
   5.555557       38.88889      7.0988892E-07  -1.219525     -2.4426720E-07
  6.6654019E-07
   5.555557       50.00000      6.3969679E-07  -1.187135     -2.3945034E-07
  5.9319098E-07
   16.66666      -50.00000      1.1630608E-06  -1.289224     -3.2317541E-07
  1.1172592E-06
   16.66666      -38.88889      7.5075923E-07  -1.116444     -3.2949345E-07
  6.7459132E-07
   16.66666      -27.77778      3.5158196E-06  -1.475902     -3.3313006E-07
  3.5000016E-06
   16.66666      -16.66667      6.2198574E-06  -1.516726     -3.3614617E-07
  6.2107674E-06
   16.66666      -5.555557      1.8437320E-05  -1.552491     -3.3748506E-07
  1.8434232E-05
   16.66666       5.555557      1.8355620E-05  -1.552412     -3.3744041E-07
  1.8352519E-05
   16.66666       16.66666      6.1600126E-06  -1.516202     -3.3613566E-07
  6.1508349E-06
   16.66666       27.77778      3.4704647E-06  -1.474664     -3.3310960E-07
  3.4544410E-06
   16.66666       38.88889      7.5587155E-07  -1.119852     -3.2942069E-07
  6.8031153E-07
   16.66666       50.00000      1.1501871E-06  -1.286054     -3.2309970E-07
  1.1038736E-06
   27.77778      -50.00000      1.3773304E-06  -1.272100     -4.0531265E-07
  1.3163436E-06
   27.77778      -38.88889      2.1863173E-06  -1.381686     -4.1099477E-07
  2.1473395E-06
   27.77778      -27.77778      2.1257192E-06  -1.373351     -4.1699218E-07
  2.0844184E-06
   27.77778      -16.66667      5.5822679E-06  -1.495541     -4.1970111E-07
  5.5664682E-06
   27.77778      -5.555557      8.4209159E-06  -1.520751     -4.2124950E-07
  8.4103731E-06
   27.77778       5.555557      8.4059857E-06  -1.520671     -4.2117975E-07
  8.3954274E-06
   27.77778       16.66666      5.5552996E-06  -1.495182     -4.1966049E-07
  5.5394257E-06
   27.77778       27.77778      2.1177916E-06  -1.372616     -4.1696356E-07
  2.0763387E-06
   27.77778       38.88889      2.1700844E-06  -1.380279     -4.1094208E-07
  2.1308197E-06
   27.77778       50.00000      1.3702205E-06  -1.270553     -4.0524671E-07
  1.3089229E-06
   38.88889      -50.00000      1.2713635E-06  -1.178768     -4.8574185E-07
  1.1749128E-06
   38.88889      -38.88889      2.0315108E-06  -1.326506     -4.9135627E-07
  1.9711938E-06
   38.88889      -27.77778      2.9264161E-06  -1.400449     -4.9609946E-07
  2.8840591E-06
   38.88889      -16.66667      1.2654148E-06  -1.162879     -5.0198764E-07
  1.1615864E-06
   38.88889      -5.555557      2.8303953E-06  -1.392037     -5.0326872E-07
  2.7852932E-06
   38.88889       5.555557      2.8289517E-06  -1.391938     -5.0328805E-07
  2.7838228E-06
   38.88889       16.66666      1.2679046E-06  -1.163770     -5.0193904E-07
  1.1643193E-06
   38.88889       27.77778      2.9148923E-06  -1.399781     -4.9606513E-07
  2.8723712E-06
   38.88889       38.88889      2.0237655E-06  -1.325601     -4.9126112E-07
  1.9632344E-06
   38.88889       50.00000      1.2708299E-06  -1.178661     -4.8566415E-07
  1.1743675E-06
   50.00000      -50.00000      1.6690738E-06  -1.230944     -5.5638225E-07
  1.5736092E-06
   50.00000      -38.88889      1.5498991E-06  -1.194186     -5.7000727E-07
  1.4412768E-06
   50.00000      -27.77778      2.2348408E-06  -1.310826     -5.7447005E-07
  2.1597448E-06
   50.00000      -16.66667      2.8508691E-06  -1.366735     -5.7772183E-07
  2.7917185E-06
   50.00000      -5.555557      3.2265207E-06  -1.390231     -5.7943794E-07
  3.1740649E-06
   50.00000       5.555557      3.2247108E-06  -1.390133     -5.7942327E-07
  3.1722277E-06
   50.00000       16.66666      2.8464899E-06  -1.366444     -5.7764578E-07
  2.7872620E-06
   50.00000       27.77778      2.2308068E-06  -1.310371     -5.7441355E-07
  2.1555852E-06
   50.00000       38.88889      1.5494772E-06  -1.194111     -5.6995952E-07
  1.4408421E-06
   50.00000       50.00000      1.6645719E-06  -1.230018     -5.5633450E-07
  1.5688504E-06
           1           2          12          11
           2           3          13          12
           3           4          14          13
           4           5          15          14
           5           6          16          15
           6           7          17          16
           7           8          18          17
           8           9          19          18
           9          10          20          19
          11          12          22          21
          12          13          23          22
          13          14          24          23
          14          15          25          24
          15          16          26          25
          16          17          27          26
          17          18          28          27
          18          19          29          28
          19          20          30          29
          21          22          32          31
          22          23          33          32
          23          24          34          33
          24          25          35          34
          25          26          36          35
          26          27          37          36
          27          28          38          37
          28          29          39          38
          29          30          40          39
          31          32          42          41
          32          33          43          42
          33          34          44          43
          34          35          45          44
          35          36          46          45
          36          37          47          46
          37          38          48          47
          38          39          49          48
          39          40          50          49
          41          42          52          51
          42          43          53          52
          43          44          54          53
          44          45          55          54
          45          46          56          55
          46          47          57          56
          47          48          58          57
          48          49          59          58
          49          50          60          59
          51          52          62          61
          52          53          63          62
          53          54          64          63
          54          55          65          64
          55          56          66          65
          56          57          67          66
          57          58          68          67
          58          59          69          68
          59          60          70          69
          61          62          72          71
          62          63          73          72
          63          64          74          73
          64          65          75          74
          65          66          76          75
          66          67          77          76
          67          68          78          77
          68          69          79          78
          69          70          80          79
          71          72          82          81
          72          73          83          82
          73          74          84          83
          74          75          85          84
          75          76          86          85
          76          77          87          86
          77          78          88          87
          78          79          89          88
          79          80          90          89
          81          82          92          91
          82          83          93          92
          83          84          94          93
          84          85          95          94
          85          86          96          95
          86          87          97          96
          87          88          98          97
          88          89          99          98
          89          90         100          99
