 VARIABLES="X" "Y" "abs(eta) (m)" "angle(phi) (rad)" "PRE1" "PRE2"
ZONE N=    100 ,E =      81 ,F=FEPOINT,ET=QUADRILATERAL
  -50.00000      -50.00000      6.6171146E-05   1.649313      5.1902339E-06
 -6.5967281E-05
  -50.00000      -38.88889      6.7866829E-05   1.647367      5.1915686E-06
 -6.7667970E-05
  -50.00000      -27.77778      6.7994471E-05   1.647238      5.1925686E-06
 -6.7795911E-05
  -50.00000      -16.66667      6.8731744E-05   1.646427      5.1932479E-06
 -6.8535264E-05
  -50.00000      -5.555557      6.9521018E-05   1.645571      5.1935731E-06
 -6.9326750E-05
  -50.00000       5.555557      6.9521127E-05   1.645571      5.1935731E-06
 -6.9326867E-05
  -50.00000       16.66666      6.8731948E-05   1.646426      5.1932479E-06
 -6.8535468E-05
  -50.00000       27.77778      6.7994530E-05   1.647238      5.1925681E-06
 -6.7795969E-05
  -50.00000       38.88889      6.7867230E-05   1.647367      5.1915699E-06
 -6.7668370E-05
  -50.00000       50.00000      6.6171509E-05   1.649313      5.1902343E-06
 -6.5967644E-05
  -38.88889      -50.00000      6.7866829E-05   1.647368      5.1915699E-06
 -6.7667970E-05
  -38.88889      -38.88889      6.8234549E-05   1.646974      5.1929196E-06
 -6.8036665E-05
  -38.88889      -27.77778      7.0646223E-05   1.644383      5.1938991E-06
 -7.0455040E-05
  -38.88889      -16.66667      7.4148171E-05   1.640911      5.1945772E-06
 -7.3965988E-05
  -38.88889      -5.555557      7.6681616E-05   1.638595      5.1949037E-06
 -7.6505443E-05
  -38.88889       5.555557      7.6681819E-05   1.638595      5.1949037E-06
 -7.6505647E-05
  -38.88889       16.66666      7.4148920E-05   1.640910      5.1945790E-06
 -7.3966738E-05
  -38.88889       27.77778      7.0646922E-05   1.644382      5.1938991E-06
 -7.0455739E-05
  -38.88889       38.88889      6.8234833E-05   1.646974      5.1929196E-06
 -6.8036949E-05
  -38.88889       50.00000      6.7867360E-05   1.647367      5.1915713E-06
 -6.7668501E-05
  -27.77778      -50.00000      6.7994457E-05   1.647238      5.1925667E-06
 -6.7795896E-05
  -27.77778      -38.88889      7.0646201E-05   1.644383      5.1938991E-06
 -7.0455018E-05
  -27.77778      -27.77778      7.6681383E-05   1.638595      5.1949019E-06
 -7.6505210E-05
  -27.77778      -16.66667      7.9555539E-05   1.636150      5.1955794E-06
 -7.9385703E-05
  -27.77778      -5.555557      8.6096697E-05   1.631183      5.1959041E-06
 -8.5939770E-05
  -27.77778       5.555557      8.6097694E-05   1.631182      5.1959064E-06
 -8.5940766E-05
  -27.77778       16.66666      7.9557030E-05   1.636149      5.1955790E-06
 -7.9387195E-05
  -27.77778       27.77778      7.6682496E-05   1.638594      5.1949028E-06
 -7.6506331E-05
  -27.77778       38.88889      7.0647249E-05   1.644382      5.1938991E-06
 -7.0456066E-05
  -27.77778       50.00000      6.7994573E-05   1.647238      5.1925681E-06
 -6.7796012E-05
  -16.66667      -50.00000      6.8731744E-05   1.646427      5.1932475E-06
 -6.8535264E-05
  -16.66667      -38.88889      7.4148164E-05   1.640911      5.1945790E-06
 -7.3965981E-05
  -16.66667      -27.77778      7.9555539E-05   1.636150      5.1955776E-06
 -7.9385703E-05
  -16.66667      -16.66667      9.5587253E-05   1.625184      5.1962184E-06
 -9.5445910E-05
  -16.66667      -5.555557      1.1658600E-04   1.615384      5.1965644E-06
 -1.1647013E-04
  -16.66667       5.555557      1.1659089E-04   1.615382      5.1965644E-06
 -1.1647503E-04
  -16.66667       16.66666      9.5588584E-05   1.625183      5.1962202E-06
 -9.5447249E-05
  -16.66667       27.77778      7.9558005E-05   1.636148      5.1955781E-06
 -7.9388177E-05
  -16.66667       38.88889      7.4149953E-05   1.640909      5.1945790E-06
 -7.3967778E-05
  -16.66667       50.00000      6.8732385E-05   1.646426      5.1932479E-06
 -6.8535912E-05
  -5.555557      -50.00000      6.9521018E-05   1.645571      5.1935740E-06
 -6.9326750E-05
  -5.555557      -38.88889      7.6681688E-05   1.638595      5.1949028E-06
 -7.6505516E-05
  -5.555557      -27.77778      8.6096712E-05   1.631183      5.1959059E-06
 -8.5939784E-05
  -5.555557      -16.66667      1.1658593E-04   1.615384      5.1965644E-06
 -1.1647006E-04
  -5.555557      -5.555557      2.2297182E-04   1.594106      5.1968336E-06
 -2.2291126E-04
  -5.555557       5.555557      2.2302246E-04   1.594100      5.1968359E-06
 -2.2296191E-04
  -5.555557       16.66666      1.1660082E-04   1.615378      5.1965631E-06
 -1.1648496E-04
  -5.555557       27.77778      8.6101754E-05   1.631179      5.1959059E-06
 -8.5944834E-05
  -5.555557       38.88889      7.6683194E-05   1.638593      5.1949037E-06
 -7.6507029E-05
  -5.555557       50.00000      6.9521971E-05   1.645570      5.1935740E-06
 -6.9327711E-05
   5.555557      -50.00000      6.9521127E-05   1.645571      5.1935740E-06
 -6.9326867E-05
   5.555557      -38.88889      7.6681834E-05   1.638595      5.1949037E-06
 -7.6505661E-05
   5.555557      -27.77778      8.6097716E-05   1.631182      5.1959059E-06
 -8.5940788E-05
   5.555557      -16.66667      1.1659089E-04   1.615382      5.1965631E-06
 -1.1647503E-04
   5.555557      -5.555557      2.2302246E-04   1.594100      5.1968336E-06
 -2.2296191E-04
   5.555557       5.555557      2.2307315E-04   1.594095      5.1968359E-06
 -2.2301261E-04
   5.555557       16.66666      1.1660573E-04   1.615376      5.1965626E-06
 -1.1648988E-04
   5.555557       27.77778      8.6102780E-05   1.631178      5.1959064E-06
 -8.5945860E-05
   5.555557       38.88889      7.6683384E-05   1.638593      5.1949019E-06
 -7.6507218E-05
   5.555557       50.00000      6.9522102E-05   1.645570      5.1935731E-06
 -6.9327842E-05
   16.66666      -50.00000      6.8731955E-05   1.646426      5.1932457E-06
 -6.8535483E-05
   16.66666      -38.88889      7.4148964E-05   1.640910      5.1945785E-06
 -7.3966781E-05
   16.66666      -27.77778      7.9557016E-05   1.636149      5.1955790E-06
 -7.9387180E-05
   16.66666      -16.66667      9.5588592E-05   1.625183      5.1962184E-06
 -9.5447256E-05
   16.66666      -5.555557      1.1660076E-04   1.615378      5.1965631E-06
 -1.1648490E-04
   16.66666       5.555557      1.1660568E-04   1.615376      5.1965626E-06
 -1.1648983E-04
   16.66666       16.66666      9.5590003E-05   1.625183      5.1962202E-06
 -9.5448668E-05
   16.66666       27.77778      7.9559490E-05   1.636147      5.1955790E-06
 -7.9389662E-05
   16.66666       38.88889      7.4150725E-05   1.640908      5.1945776E-06
 -7.3968549E-05
   16.66666       50.00000      6.8732581E-05   1.646426      5.1932470E-06
 -6.8536108E-05
   27.77778      -50.00000      6.7994530E-05   1.647238      5.1925676E-06
 -6.7795969E-05
   27.77778      -38.88889      7.0646958E-05   1.644382      5.1938982E-06
 -7.0455775E-05
   27.77778      -27.77778      7.6682525E-05   1.638594      5.1949028E-06
 -7.6506360E-05
   27.77778      -16.66667      7.9557998E-05   1.636148      5.1955790E-06
 -7.9388170E-05
   27.77778      -5.555557      8.6101747E-05   1.631179      5.1959041E-06
 -8.5944826E-05
   27.77778       5.555557      8.6102773E-05   1.631178      5.1959050E-06
 -8.5945852E-05
   27.77778       16.66666      7.9559490E-05   1.636147      5.1955790E-06
 -7.9389662E-05
   27.77778       27.77778      7.6683624E-05   1.638593      5.1949037E-06
 -7.6507458E-05
   27.77778       38.88889      7.0647984E-05   1.644381      5.1938991E-06
 -7.0456801E-05
   27.77778       50.00000      6.7994632E-05   1.647238      5.1925686E-06
 -6.7796071E-05
   38.88889      -50.00000      6.7867230E-05   1.647367      5.1915767E-06
 -6.7668370E-05
   38.88889      -38.88889      6.8234876E-05   1.646974      5.1929183E-06
 -6.8036992E-05
   38.88889      -27.77778      7.0647242E-05   1.644382      5.1938978E-06
 -7.0456059E-05
   38.88889      -16.66667      7.4149968E-05   1.640909      5.1945772E-06
 -7.3967793E-05
   38.88889      -5.555557      7.6683216E-05   1.638593      5.1949028E-06
 -7.6507051E-05
   38.88889       5.555557      7.6683413E-05   1.638593      5.1949028E-06
 -7.6507247E-05
   38.88889       16.66666      7.4150717E-05   1.640908      5.1945776E-06
 -7.3968542E-05
   38.88889       27.77778      7.0647984E-05   1.644381      5.1938982E-06
 -7.0456801E-05
   38.88889       38.88889      6.8235160E-05   1.646973      5.1929169E-06
 -6.8037276E-05
   38.88889       50.00000      6.7867761E-05   1.647367      5.1915777E-06
 -6.7668901E-05
   50.00000      -50.00000      6.6171473E-05   1.649313      5.1902334E-06
 -6.5967608E-05
   50.00000      -38.88889      6.7867346E-05   1.647367      5.1915790E-06
 -6.7668487E-05
   50.00000      -27.77778      6.7994581E-05   1.647238      5.1925686E-06
 -6.7796020E-05
   50.00000      -16.66667      6.8732370E-05   1.646426      5.1932461E-06
 -6.8535897E-05
   50.00000      -5.555557      6.9522001E-05   1.645570      5.1935740E-06
 -6.9327740E-05
   50.00000       5.555557      6.9522081E-05   1.645570      5.1935740E-06
 -6.9327820E-05
   50.00000       16.66666      6.8732588E-05   1.646426      5.1932461E-06
 -6.8536116E-05
   50.00000       27.77778      6.7994653E-05   1.647238      5.1925663E-06
 -6.7796092E-05
   50.00000       38.88889      6.7867761E-05   1.647367      5.1915790E-06
 -6.7668901E-05
   50.00000       50.00000      6.6171844E-05   1.649313      5.1902339E-06
 -6.5967979E-05
           1           2          12          11
           2           3          13          12
           3           4          14          13
           4           5          15          14
           5           6          16          15
           6           7          17          16
           7           8          18          17
           8           9          19          18
           9          10          20          19
          11          12          22          21
          12          13          23          22
          13          14          24          23
          14          15          25          24
          15          16          26          25
          16          17          27          26
          17          18          28          27
          18          19          29          28
          19          20          30          29
          21          22          32          31
          22          23          33          32
          23          24          34          33
          24          25          35          34
          25          26          36          35
          26          27          37          36
          27          28          38          37
          28          29          39          38
          29          30          40          39
          31          32          42          41
          32          33          43          42
          33          34          44          43
          34          35          45          44
          35          36          46          45
          36          37          47          46
          37          38          48          47
          38          39          49          48
          39          40          50          49
          41          42          52          51
          42          43          53          52
          43          44          54          53
          44          45          55          54
          45          46          56          55
          46          47          57          56
          47          48          58          57
          48          49          59          58
          49          50          60          59
          51          52          62          61
          52          53          63          62
          53          54          64          63
          54          55          65          64
          55          56          66          65
          56          57          67          66
          57          58          68          67
          58          59          69          68
          59          60          70          69
          61          62          72          71
          62          63          73          72
          63          64          74          73
          64          65          75          74
          65          66          76          75
          66          67          77          76
          67          68          78          77
          68          69          79          78
          69          70          80          79
          71          72          82          81
          72          73          83          82
          73          74          84          83
          74          75          85          84
          75          76          86          85
          76          77          87          86
          77          78          88          87
          78          79          89          88
          79          80          90          89
          81          82          92          91
          82          83          93          92
          83          84          94          93
          84          85          95          94
          85          86          96          95
          86          87          97          96
          87          88          98          97
          88          89          99          98
          89          90         100          99
