 VARIABLES="X" "Y" "abs(eta) (m)" "angle(phi) (rad)" "PRE1" "PRE2"
ZONE N=    100 ,E =      81 ,F=FEPOINT,ET=QUADRILATERAL
  -50.00000      -50.00000      1.8173843E-05   1.762150      3.4564405E-06
 -1.7842131E-05
  -50.00000      -38.88889      2.1165355E-05   1.003656     -1.1370502E-05
 -1.7851720E-05
  -50.00000      -27.77778      2.5032885E-05  0.3747785     -2.3295321E-05
 -9.1636985E-06
  -50.00000      -16.66667      2.8366851E-05 -8.3274923E-02 -2.8268549E-05
  2.3595180E-06
  -50.00000      -5.555557      3.0695675E-05 -0.3227005     -2.9111239E-05
  9.7344837E-06
  -50.00000       5.555557      3.0696083E-05 -0.3227079     -2.9111556E-05
  9.7348266E-06
  -50.00000       16.66666      2.8369368E-05 -8.3301567E-02 -2.8270995E-05
  2.3604807E-06
  -50.00000       27.77778      2.5035917E-05  0.3747172     -2.3298704E-05
 -9.1633810E-06
  -50.00000       38.88889      2.1169477E-05   1.003543     -1.1374724E-05
 -1.7853919E-05
  -50.00000       50.00000      1.8177871E-05   1.761956      3.4537477E-06
 -1.7846753E-05
  -38.88889      -50.00000      1.6460719E-05   1.003022     -8.8518591E-06
 -1.3878036E-05
  -38.88889      -38.88889      2.1232234E-05  0.1512557     -2.0989817E-05
 -3.1992649E-06
  -38.88889      -27.77778      2.6269348E-05 -0.5728824     -2.2075237E-05
  1.4239471E-05
  -38.88889      -16.66667      3.2283006E-05  -1.113899     -1.4242148E-05
  2.8971603E-05
  -38.88889      -5.555557      3.5925168E-05  -1.410115     -5.7476782E-06
  3.5462403E-05
  -38.88889       5.555557      3.5925448E-05  -1.410141     -5.7468137E-06
  3.5462825E-05
  -38.88889       16.66666      3.2285152E-05  -1.113940     -1.4241915E-05
  2.8974107E-05
  -38.88889       27.77778      2.6270847E-05 -0.5729113     -2.2076087E-05
  1.4240920E-05
  -38.88889       38.88889      2.1235934E-05  0.1512097     -2.0993622E-05
 -3.1988559E-06
  -38.88889       50.00000      1.6466040E-05   1.002888     -8.8565903E-06
 -1.3881328E-05
  -27.77778      -50.00000      1.3904612E-05  0.3731904     -1.2947543E-05
 -5.0694562E-06
  -27.77778      -38.88889      1.8761908E-05 -0.5737256     -1.5757840E-05
  1.0183305E-05
  -27.77778      -27.77778      2.5658979E-05  -1.410762     -4.0888017E-06
  2.5331106E-05
  -27.77778      -16.66667      3.4832679E-05  -2.071555      1.6722854E-05
  3.0555879E-05
  -27.77778      -5.555557      4.2015788E-05  -2.462071      3.2682976E-05
  2.6403590E-05
  -27.77778       5.555557      4.2014486E-05  -2.462213      3.2685690E-05
  2.6398160E-05
  -27.77778       16.66666      3.4831555E-05  -2.071786      1.6729375E-05
  3.0551026E-05
  -27.77778       27.77778      2.5658859E-05  -1.410879     -4.0858399E-06
  2.5331461E-05
  -27.77778       38.88889      1.8763722E-05 -0.5737009     -1.5759613E-05
  1.0183900E-05
  -27.77778       50.00000      1.3909837E-05  0.3731823     -1.2952448E-05
 -5.0712561E-06
  -16.66667      -50.00000      9.4522084E-06 -8.6932421E-02 -9.4165143E-06
  8.2066873E-07
  -16.66667      -38.88889      1.3831547E-05  -1.116311     -6.0720427E-06
  1.2427469E-05
  -16.66667      -27.77778      2.0896843E-05  -2.072736      1.0054023E-05
  1.8319244E-05
  -16.66667      -16.66667      3.2459266E-05  -2.928814      3.1727239E-05
  6.8546478E-06
  -16.66667      -5.555557      5.1312338E-05   2.765636      4.7728525E-05
 -1.8839954E-05
  -16.66667       5.555557      5.1327843E-05   2.765084      4.7732523E-05
 -1.8872035E-05
  -16.66667       16.66666      3.2461103E-05  -2.929888      3.1736385E-05
  6.8209324E-06
  -16.66667       27.77778      2.0892370E-05  -2.073266      1.0061587E-05
  1.8309986E-05
  -16.66667       38.88889      1.3832077E-05  -1.116268     -6.0728171E-06
  1.2427680E-05
  -16.66667       50.00000      9.4567158E-06 -8.6700067E-02 -9.4211955E-06
  8.1887111E-07
  -5.555557      -50.00000      3.4056557E-06 -0.3364976     -3.2146559E-06
  1.1244903E-06
  -5.555557      -38.88889      5.1266261E-06  -1.420133     -7.6947589E-07
  5.0685503E-06
  -5.555557      -27.77778      8.3960722E-06  -2.467924      6.5618510E-06
  5.2379519E-06
  -5.555557      -16.66667      1.7076487E-05   2.764032      1.5873731E-05
 -6.2953191E-06
  -5.555557      -5.555557      8.2168270E-05   1.848725      2.2544044E-05
 -7.9015132E-05
  -5.555557       5.555557      8.2323560E-05   1.848237      2.2547994E-05
 -7.9175479E-05
  -5.555557       16.66666      1.7116374E-05   2.759562      1.5882450E-05
 -6.3810694E-06
  -5.555557       27.77778      8.3871391E-06  -2.470525      6.5684567E-06
  5.2153127E-06
  -5.555557       38.88889      5.1225616E-06  -1.420048     -7.6929859E-07
  5.0644662E-06
  -5.555557       50.00000      3.4086115E-06 -0.3352399     -3.2188589E-06
  1.1214188E-06
   5.555557      -50.00000      3.4174450E-06   2.835863      3.2589701E-06
 -1.0286126E-06
   5.555557      -38.88889      5.1415304E-06   1.744752      8.8989384E-07
 -5.0639337E-06
   5.555557      -27.77778      8.4165486E-06  0.6886787     -6.4983028E-06
 -5.3488648E-06
   5.555557      -16.66667      1.7148765E-05 -0.3714495     -1.5979256E-05
  6.2244262E-06
   5.555557      -5.555557      8.2408777E-05  -1.290553     -2.2793365E-05
  7.9193873E-05
   5.555557       5.555557      8.2365543E-05  -1.290440     -2.2790373E-05
  7.9149744E-05
   5.555557       16.66666      1.7116830E-05 -0.3674750     -1.5974067E-05
  6.1493956E-06
   5.555557       27.77778      8.4272151E-06  0.6907874     -6.4952305E-06
 -5.3693520E-06
   5.555557       38.88889      5.1476277E-06   1.744157      8.8793172E-07
 -5.0704684E-06
   5.555557       50.00000      3.4147022E-06   2.834160      3.2545993E-06
 -1.0333318E-06
   16.66666      -50.00000      9.4624484E-06   3.065377      9.4349789E-06
 -7.2048402E-07
   16.66666      -38.88889      1.3847686E-05   2.033518      6.1814071E-06
 -1.2391473E-05
   16.66666      -27.77778      2.0918886E-05   1.074863     -9.9543140E-06
 -1.8398679E-05
   16.66666      -16.66667      3.2492248E-05  0.2166348     -3.1732783E-05
 -6.9840244E-06
   16.66666      -5.555557      5.1370367E-05 -0.3732185     -4.7833961E-05
  1.8730367E-05
   16.66666       5.555557      5.1361909E-05 -0.3728317     -4.7833328E-05
  1.8708783E-05
   16.66666       16.66666      3.2497228E-05  0.2173636     -3.1732550E-05
 -7.0082219E-06
   16.66666       27.77778      2.0928992E-05   1.075006     -9.9564859E-06
 -1.8408995E-05
   16.66666       38.88889      1.3851904E-05   2.033058      6.1775841E-06
 -1.2398092E-05
   16.66666       50.00000      9.4609140E-06   3.064680      9.4329444E-06
 -7.2695070E-07
   27.77778      -50.00000      1.3913877E-05  -2.761509      1.2920892E-05
  5.1620268E-06
   27.77778      -38.88889      1.8775048E-05   2.573434      1.5825359E-05
 -1.0102498E-05
   27.77778      -27.77778      2.5679194E-05   1.735316      4.2056949E-06
 -2.5332452E-05
   27.77778      -16.66667      3.4861550E-05   1.073600     -1.6627680E-05
 -3.0640625E-05
   27.77778      -5.555557      4.2047421E-05  0.6826587     -3.2624517E-05
 -2.6525959E-05
   27.77778       5.555557      4.2050058E-05  0.6827000     -3.2625470E-05
 -2.6528967E-05
   27.77778       16.66666      3.4868954E-05   1.073611     -1.6630884E-05
 -3.0647312E-05
   27.77778       27.77778      2.5686350E-05   1.735106      4.2015431E-06
 -2.5340394E-05
   27.77778       38.88889      1.8774448E-05   2.573003      1.5820502E-05
 -1.0108987E-05
   27.77778       50.00000      1.3909311E-05  -2.761946      1.2918909E-05
  5.1546776E-06
   38.88889      -50.00000      1.6468190E-05  -2.133067      8.7793378E-06
  1.3932856E-05
   38.88889      -38.88889      2.1241303E-05  -2.985857      2.0984235E-05
  3.2946716E-06
   38.88889      -27.77778      2.6282563E-05   2.572538      2.2140717E-05
 -1.4161982E-05
   38.88889      -16.66667      3.2304997E-05   2.030990      1.4347361E-05
 -2.8944190E-05
   38.88889      -5.555557      3.5952278E-05   1.734538      5.8606106E-06
 -3.5471392E-05
   38.88889       5.555557      3.5954032E-05   1.734503      5.8596452E-06
 -3.5473327E-05
   38.88889       16.66666      3.2308199E-05   2.030855      1.4344852E-05
 -2.8949007E-05
   38.88889       27.77778      2.6282358E-05   2.572279      2.2136870E-05
 -1.4167615E-05
   38.88889       38.88889      2.1237773E-05  -2.986169      2.0981774E-05
  3.2875782E-06
   38.88889       50.00000      1.6463566E-05  -2.133336      8.7806184E-06
  1.3926584E-05
   50.00000      -50.00000      1.8180797E-05  -1.374686     -3.5426390E-06
  1.7832304E-05
   50.00000      -38.88889      2.1171934E-05  -2.133748      1.1299129E-05
  1.7904762E-05
   50.00000      -27.77778      2.5040379E-05  -2.763193      2.3268951E-05
  9.2507553E-06
   50.00000      -16.66667      2.8379358E-05   3.061573      2.8288547E-05
 -2.2684926E-06
   50.00000      -5.555557      3.0706509E-05   2.821913      2.9150806E-05
 -9.6498870E-06
   50.00000       5.555557      3.0706407E-05   2.821863      2.9150217E-05
 -9.6513368E-06
   50.00000       16.66666      2.8380107E-05   3.061440      2.8288994E-05
 -2.2722986E-06
   50.00000       27.77778      2.5038053E-05  -2.763385      2.3268562E-05
  9.2454393E-06
   50.00000       38.88889      2.1168418E-05  -2.133949      1.1300853E-05
  1.7899516E-05
   50.00000       50.00000      1.8176663E-05  -1.374850     -3.5389012E-06
  1.7828832E-05
           1           2          12          11
           2           3          13          12
           3           4          14          13
           4           5          15          14
           5           6          16          15
           6           7          17          16
           7           8          18          17
           8           9          19          18
           9          10          20          19
          11          12          22          21
          12          13          23          22
          13          14          24          23
          14          15          25          24
          15          16          26          25
          16          17          27          26
          17          18          28          27
          18          19          29          28
          19          20          30          29
          21          22          32          31
          22          23          33          32
          23          24          34          33
          24          25          35          34
          25          26          36          35
          26          27          37          36
          27          28          38          37
          28          29          39          38
          29          30          40          39
          31          32          42          41
          32          33          43          42
          33          34          44          43
          34          35          45          44
          35          36          46          45
          36          37          47          46
          37          38          48          47
          38          39          49          48
          39          40          50          49
          41          42          52          51
          42          43          53          52
          43          44          54          53
          44          45          55          54
          45          46          56          55
          46          47          57          56
          47          48          58          57
          48          49          59          58
          49          50          60          59
          51          52          62          61
          52          53          63          62
          53          54          64          63
          54          55          65          64
          55          56          66          65
          56          57          67          66
          57          58          68          67
          58          59          69          68
          59          60          70          69
          61          62          72          71
          62          63          73          72
          63          64          74          73
          64          65          75          74
          65          66          76          75
          66          67          77          76
          67          68          78          77
          68          69          79          78
          69          70          80          79
          71          72          82          81
          72          73          83          82
          73          74          84          83
          74          75          85          84
          75          76          86          85
          76          77          87          86
          77          78          88          87
          78          79          89          88
          79          80          90          89
          81          82          92          91
          82          83          93          92
          83          84          94          93
          84          85          95          94
          85          86          96          95
          86          87          97          96
          87          88          98          97
          88          89          99          98
          89          90         100          99
