 VARIABLES="X" "Y" "abs(eta) (m)" "angle(phi) (rad)" "PRE1" "PRE2"
ZONE N=    100 ,E =      81 ,F=FEPOINT,ET=QUADRILATERAL
  -50.00000      -50.00000      1.2005128E-05  0.3859588     -1.1122006E-05
 -4.5193010E-06
  -50.00000      -38.88889      1.1289520E-05 -0.2178018     -1.1022803E-05
  2.4394828E-06
  -50.00000      -27.77778      9.2970886E-06 -0.7178181     -7.0029637E-06
  6.1150922E-06
  -50.00000      -16.66667      6.4271176E-06  -1.075356     -3.0555773E-06
  5.6543158E-06
  -50.00000      -5.555557      2.2909560E-06  -1.259389     -7.0194562E-07
  2.1807687E-06
  -50.00000       5.555557      2.3278922E-06   1.868981      6.8390023E-07
 -2.2251656E-06
  -50.00000       16.66666      6.4618212E-06   2.060221      3.0378199E-06
 -5.7032257E-06
  -50.00000       27.77778      9.3213712E-06   2.418241      6.9872190E-06
 -6.1698238E-06
  -50.00000       38.88889      1.1293633E-05   2.918319      1.1013300E-05
 -2.5006766E-06
  -50.00000       50.00000      1.1982396E-05  -2.760561      1.1123035E-05
  4.4559979E-06
  -38.88889      -50.00000      1.4515240E-05 -0.2184129     -1.4170395E-05
  3.1451689E-06
  -38.88889      -38.88889      1.4132478E-05 -0.8916090     -8.8774696E-06
  1.0996248E-05
  -38.88889      -27.77778      1.2807148E-05  -1.460214     -1.4133540E-06
  1.2728922E-05
  -38.88889      -16.66667      9.0428866E-06  -1.890656      2.8433897E-06
  8.5842257E-06
  -38.88889      -5.555557      3.4104141E-06  -2.123731      1.7911051E-06
  2.9022176E-06
  -38.88889       5.555557      3.4415475E-06   1.020415     -1.7999710E-06
 -2.9333180E-06
  -38.88889       16.66666      9.0793064E-06   1.250674     -2.8571044E-06
 -8.6180489E-06
  -38.88889       27.77778      1.2845931E-05   1.679584      1.3947196E-06
 -1.2769992E-05
  -38.88889       38.88889      1.4162644E-05   2.246667      8.8598263E-06
 -1.1049162E-05
  -38.88889       50.00000      1.4520306E-05   2.918892      1.4161721E-05
 -3.2070145E-06
  -27.77778      -50.00000      1.6743526E-05 -0.7190523     -1.2598337E-05
  1.1028489E-05
  -27.77778      -38.88889      1.7937558E-05  -1.460443     -1.9754596E-06
  1.7828448E-05
  -27.77778      -27.77778      1.7114196E-05  -2.122622      8.9719970E-06
  1.4573914E-05
  -27.77778      -16.66667      1.3527175E-05  -2.658276      1.1977750E-05
  6.2863319E-06
  -27.77778      -5.555557      5.4967118E-06  -2.974758      5.4203920E-06
  9.1279350E-07
  -27.77778       5.555557      5.4909387E-06  0.1736867     -5.4083239E-06
 -9.4891504E-07
  -27.77778       16.66666      1.3540061E-05  0.4852400     -1.1977037E-05
 -6.3153643E-06
  -27.77778       27.77778      1.7145774E-05   1.019255     -8.9843934E-06
 -1.4603364E-05
  -27.77778       38.88889      1.7976930E-05   1.679793      1.9555407E-06
 -1.7870252E-05
  -27.77778       50.00000      1.6769935E-05   2.419396      1.2583418E-05
 -1.1085500E-05
  -16.66667      -50.00000      1.9314741E-05  -1.077387     -9.1480715E-06
  1.7010938E-05
  -16.66667      -38.88889      2.1124335E-05  -1.890682      6.6427197E-06
  2.0052725E-05
  -16.66667      -27.77778      2.2548835E-05  -2.657768      1.9960726E-05
  1.0489011E-05
  -16.66667      -16.66667      2.1902955E-05   2.951299      2.1507580E-05
 -4.1428839E-06
  -16.66667      -5.555557      1.1639308E-05   2.447114      8.9434998E-06
 -7.4489808E-06
  -16.66667       5.555557      1.1555238E-05 -0.6904047     -8.9089544E-06
  7.3589449E-06
  -16.66667       16.66666      2.1877489E-05 -0.1888881     -2.1488368E-05
  4.1078679E-06
  -16.66667       27.77778      2.2564422E-05  0.4846718     -1.9965630E-05
 -1.0513169E-05
  -16.66667       38.88889      2.1161506E-05   1.250576     -6.6611346E-06
 -2.0085781E-05
  -16.66667       50.00000      1.9354198E-05   2.062110      9.1310203E-06
 -1.7064860E-05
  -5.555557      -50.00000      2.0764919E-05  -1.265322     -6.2449508E-06
  1.9803598E-05
  -5.555557      -38.88889      2.3966477E-05  -2.122530      1.2562366E-05
  2.0410267E-05
  -5.555557      -27.77778      2.7469267E-05  -2.971679      2.7073691E-05
  4.6449832E-06
  -5.555557      -16.66667      3.4814322E-05   2.449022      2.6793356E-05
 -2.2229557E-05
  -5.555557      -5.555557      5.9282003E-05   1.760680      1.1189158E-05
 -5.8216479E-05
  -5.555557       5.555557      5.9099588E-05  -1.381092     -1.1144337E-05
  5.8039339E-05
  -5.555557       16.66666      3.4775370E-05 -0.6924551     -2.6765942E-05
  2.2201595E-05
  -5.555557       27.77778      2.7473094E-05  0.1704871     -2.7074795E-05
 -4.6611508E-06
  -5.555557       38.88889      2.3998167E-05   1.019048     -1.2579282E-05
 -2.0437066E-05
  -5.555557       50.00000      2.0804500E-05   1.874656      6.2248241E-06
 -1.9851417E-05
   5.555557      -50.00000      2.0764792E-05  -1.265354     -6.2442864E-06
  1.9803672E-05
   5.555557      -38.88889      2.3966792E-05  -2.122527      1.2562482E-05
  2.0410564E-05
   5.555557      -27.77778      2.7469594E-05  -2.971545      2.7073393E-05
  4.6486575E-06
   5.555557      -16.66667      3.4798315E-05   2.449478      2.6791155E-05
 -2.2207136E-05
   5.555557      -5.555557      5.9140039E-05   1.761088      1.1186074E-05
 -5.8072506E-05
   5.555557       5.555557      5.9203594E-05  -1.381364     -1.1148150E-05
  5.8144513E-05
   5.555557       16.66666      3.4797038E-05 -0.6930547     -2.6769292E-05
  2.2231483E-05
   5.555557       27.77778      2.7475242E-05  0.1702871     -2.7077844E-05
 -4.6560990E-06
   5.555557       38.88889      2.3998331E-05   1.018991     -1.2580542E-05
 -2.0436484E-05
   5.555557       50.00000      2.0804855E-05   1.874645      6.2246945E-06
 -1.9851830E-05
   16.66666      -50.00000      1.9315423E-05  -1.077476     -9.1468828E-06
  1.7012351E-05
   16.66666      -38.88889      2.1124932E-05  -1.890711      6.6434955E-06
  2.0053098E-05
   16.66666      -27.77778      2.2550967E-05  -2.657517      1.9959984E-05
  1.0495005E-05
   16.66666      -16.66667      2.1893249E-05   2.952262      2.1502026E-05
 -4.1203466E-06
   16.66666      -5.555557      1.1585628E-05   2.451633      8.9356708E-06
 -7.3743186E-06
   16.66666       5.555557      1.1614574E-05 -0.6953601     -8.9179375E-06
  7.4410159E-06
   16.66666       16.66666      2.1890986E-05 -0.1901827     -2.1496286E-05
  4.1382345E-06
   16.66666       27.77778      2.2567181E-05  0.4842554     -1.9972447E-05
 -1.0506140E-05
   16.66666       38.88889      2.1161870E-05   1.250456     -6.6636539E-06
 -2.0085330E-05
   16.66666       50.00000      1.9356155E-05   2.062079      9.1314032E-06
 -1.7066875E-05
   27.77778      -50.00000      1.6742057E-05 -0.7192149     -1.2595438E-05
  1.1029570E-05
   27.77778      -38.88889      1.7937004E-05  -1.460585     -1.9728650E-06
  1.7828177E-05
   27.77778      -27.77778      1.7115277E-05  -2.122561      8.9716668E-06
  1.4575387E-05
   27.77778      -16.66667      1.3529022E-05  -2.657498      1.1974494E-05
  6.2965023E-06
   27.77778      -5.555557      5.4929928E-06  -2.970844      5.4131128E-06
  9.3336922E-07
   27.77778       5.555557      5.4967427E-06  0.1694299     -5.4180350E-06
 -9.2686298E-07
   27.77778       16.66666      1.3542543E-05  0.4841725     -1.1985969E-05
 -6.3037310E-06
   27.77778       27.77778      1.7145943E-05   1.018909     -8.9895366E-06
 -1.4600398E-05
   27.77778       38.88889      1.7978073E-05   1.679697      1.9539623E-06
 -1.7871573E-05
   27.77778       50.00000      1.6772314E-05   2.419371      1.2584926E-05
 -1.1087388E-05
   38.88889      -50.00000      1.4512176E-05 -0.2186375     -1.4166697E-05
  3.1476866E-06
   38.88889      -38.88889      1.4130481E-05 -0.8918611     -8.8734432E-06
  1.0996931E-05
   38.88889      -27.77778      1.2806308E-05  -1.460401     -1.4108838E-06
  1.2728352E-05
   38.88889      -16.66667      9.0436361E-06  -1.890593      2.8430775E-06
  8.5851188E-06
   38.88889      -5.555557      3.4112147E-06  -2.122441      1.7877787E-06
  2.9052078E-06
   38.88889       5.555557      3.4411328E-06   1.018748     -1.8046414E-06
 -2.9299597E-06
   38.88889       16.66666      9.0795047E-06   1.250226     -2.8610227E-06
 -8.6169575E-06
   38.88889       27.77778      1.2847464E-05   1.679477      1.3935199E-06
 -1.2771665E-05
   38.88889       38.88889      1.4165385E-05   2.246657      8.8614297E-06
 -1.1051388E-05
   38.88889       50.00000      1.4523666E-05   2.918863      1.4164903E-05
 -3.2081764E-06
   50.00000      -50.00000      1.2001067E-05  0.3857038     -1.1119396E-05
 -4.5149372E-06
   50.00000      -38.88889      1.1285546E-05 -0.2181276     -1.1018128E-05
  2.4422141E-06
   50.00000      -27.77778      9.2941309E-06 -0.7182190     -6.9982843E-06
  6.1159540E-06
   50.00000      -16.66667      6.4262144E-06  -1.075836     -3.0524336E-06
  5.6549875E-06
   50.00000      -5.555557      2.2891177E-06  -1.260204     -6.9960703E-07
  2.1795893E-06
   50.00000       5.555557      2.3299087E-06   1.869419      6.8546888E-07
 -2.2267930E-06
   50.00000       16.66666      6.4653218E-06   2.060345      3.0401704E-06
 -5.7059397E-06
   50.00000       27.77778      9.3251547E-06   2.418304      6.9904486E-06
 -6.1718824E-06
   50.00000       38.88889      1.1297913E-05   2.918322      1.1017481E-05
 -2.5015879E-06
   50.00000       50.00000      1.1986772E-05  -2.760616      1.1127343E-05
  4.4570102E-06
           1           2          12          11
           2           3          13          12
           3           4          14          13
           4           5          15          14
           5           6          16          15
           6           7          17          16
           7           8          18          17
           8           9          19          18
           9          10          20          19
          11          12          22          21
          12          13          23          22
          13          14          24          23
          14          15          25          24
          15          16          26          25
          16          17          27          26
          17          18          28          27
          18          19          29          28
          19          20          30          29
          21          22          32          31
          22          23          33          32
          23          24          34          33
          24          25          35          34
          25          26          36          35
          26          27          37          36
          27          28          38          37
          28          29          39          38
          29          30          40          39
          31          32          42          41
          32          33          43          42
          33          34          44          43
          34          35          45          44
          35          36          46          45
          36          37          47          46
          37          38          48          47
          38          39          49          48
          39          40          50          49
          41          42          52          51
          42          43          53          52
          43          44          54          53
          44          45          55          54
          45          46          56          55
          46          47          57          56
          47          48          58          57
          48          49          59          58
          49          50          60          59
          51          52          62          61
          52          53          63          62
          53          54          64          63
          54          55          65          64
          55          56          66          65
          56          57          67          66
          57          58          68          67
          58          59          69          68
          59          60          70          69
          61          62          72          71
          62          63          73          72
          63          64          74          73
          64          65          75          74
          65          66          76          75
          66          67          77          76
          67          68          78          77
          68          69          79          78
          69          70          80          79
          71          72          82          81
          72          73          83          82
          73          74          84          83
          74          75          85          84
          75          76          86          85
          76          77          87          86
          77          78          88          87
          78          79          89          88
          79          80          90          89
          81          82          92          91
          82          83          93          92
          83          84          94          93
          84          85          95          94
          85          86          96          95
          86          87          97          96
          87          88          98          97
          88          89          99          98
          89          90         100          99
