 VARIABLES="X" "Y" "abs(eta) (m)" "angle(phi) (rad)" "PRE1" "PRE2"
ZONE N=    100 ,E =      81 ,F=FEPOINT,ET=QUADRILATERAL
  -50.00000      -50.00000      9.5624317E-05  0.3611087     -8.9457091E-05
 -3.3785185E-05
  -50.00000      -38.88889      1.1601617E-04 -0.2397750     -1.1269711E-04
  2.7551989E-05
  -50.00000      -27.77778      1.3403338E-04 -0.7371406     -9.9237463E-05
  9.0093701E-05
  -50.00000      -16.66667      1.5459742E-04  -1.092561     -7.1147733E-05
  1.3725292E-04
  -50.00000      -5.555557      1.6621627E-04  -1.279133     -4.7794718E-05
  1.5919645E-04
  -50.00000       5.555557      1.6621470E-04  -1.279148     -4.7791909E-05
  1.5919567E-04
  -50.00000       16.66666      1.5460205E-04  -1.092588     -7.1146169E-05
  1.3725895E-04
  -50.00000       27.77778      1.3403544E-04 -0.7371759     -9.9235796E-05
  9.0098576E-05
  -50.00000       38.88889      1.1602231E-04 -0.2398020     -1.1270234E-04
  2.7556500E-05
  -50.00000       50.00000      9.5636962E-05  0.3610607     -8.9470544E-05
 -3.3785356E-05
  -38.88889      -50.00000      9.0233079E-05 -0.2453748     -8.7530272E-05
  2.1919410E-05
  -38.88889      -38.88889      1.1319664E-04 -0.9128147     -6.9222137E-05
  8.9564368E-05
  -38.88889      -27.77778      1.4359811E-04  -1.476166     -1.3568397E-05
  1.4295564E-04
  -38.88889      -16.66667      1.6891705E-04  -1.903692      5.5198936E-05
  1.5964349E-04
  -38.88889      -5.555557      1.9149402E-04  -2.134095      1.0225364E-04
  1.6190785E-04
  -38.88889       5.555557      1.9148897E-04  -2.134151      1.0225998E-04
  1.6189787E-04
  -38.88889       16.66666      1.6890468E-04  -1.903812      5.5213935E-05
  1.5962523E-04
  -38.88889       27.77778      1.4358513E-04  -1.476265     -1.3553086E-05
  1.4294406E-04
  -38.88889       38.88889      1.1319279E-04 -0.9128484     -6.9216767E-05
  8.9563648E-05
  -38.88889       50.00000      9.0240443E-05 -0.2453789     -8.7537323E-05
  2.1921558E-05
  -27.77778      -50.00000      7.4527052E-05 -0.7506462     -5.4497774E-05
  5.0835759E-05
  -27.77778      -38.88889      1.0261070E-04  -1.482234     -9.0755520E-06
  1.0220856E-04
  -27.77778      -27.77778      1.3676612E-04  -2.138518      7.3540847E-05
  1.1531138E-04
  -27.77778      -16.66667      1.7982563E-04  -2.670710      1.6025487E-04
  8.1582053E-05
  -27.77778      -5.555557      2.1893985E-04  -2.983525      2.1621038E-04
  3.4463490E-05
  -27.77778       5.555557      2.1894755E-04  -2.983705      2.1622420E-04
  3.4425604E-05
  -27.77778       16.66666      1.7982480E-04  -2.671105      1.6028635E-04
  8.1518374E-05
  -27.77778       27.77778      1.3673915E-04  -2.138856      7.3565287E-05
  1.1526381E-04
  -27.77778       38.88889      1.0259155E-04  -1.482365     -9.0605226E-06
  1.0219066E-04
  -27.77778       50.00000      7.4527023E-05 -0.7506040     -5.4499902E-05
  5.0833434E-05
  -16.66667      -50.00000      5.1666855E-05  -1.121267     -2.2451384E-05
  4.6533849E-05
  -16.66667      -38.88889      7.2419665E-05  -1.920619      2.4820447E-05
  6.8033471E-05
  -16.66667      -27.77778      1.0776061E-04  -2.678919      9.6430907E-05
  4.8098129E-05
  -16.66667      -16.66667      1.7414689E-04   2.935939      1.7047720E-04
 -3.5562112E-05
  -16.66667      -5.555557      2.7724385E-04   2.436743      2.1117920E-04
 -1.7963158E-04
  -16.66667       5.555557      2.7738840E-04   2.436186      2.1118904E-04
 -1.7984305E-04
  -16.66667       16.66666      1.7421425E-04   2.934738      1.7050032E-04
 -3.5780526E-05
  -16.66667       27.77778      1.0774959E-04  -2.679916      9.6468968E-05
  4.7997004E-05
  -16.66667       38.88889      7.2386196E-05  -1.921056      2.4838730E-05
  6.7991168E-05
  -16.66667       50.00000      5.1658950E-05  -1.121182     -2.2451904E-05
  4.6524823E-05
  -5.555557      -50.00000      1.8707266E-05  -1.383912     -3.4757770E-06
  1.8381534E-05
  -5.555557      -38.88889      2.7351589E-05  -2.201480      1.6129157E-05
  2.2089811E-05
  -5.555557      -27.77778      4.3376032E-05  -3.026238      4.3087755E-05
  4.9925497E-06
  -5.555557      -16.66667      9.1487855E-05   2.416233      6.8456771E-05
 -6.0693481E-05
  -5.555557      -5.555557      4.7085766E-04   1.751133      8.4453481E-05
 -4.6322192E-04
  -5.555557       5.555557      4.7152958E-04   1.750899      8.4465239E-05
 -4.6390275E-04
  -5.555557       16.66666      9.1886344E-05   2.411704      6.8478170E-05
 -6.1268591E-05
  -5.555557       27.77778      4.3383454E-05  -3.030265      4.3114887E-05
  4.8198021E-06
  -5.555557       38.88889      2.7311613E-05  -2.203170      1.6142822E-05
  2.2030286E-05
  -5.555557       50.00000      1.8685920E-05  -1.383678     -3.4761149E-06
  1.8359744E-05
   5.555557      -50.00000      1.8462928E-05   1.995211      7.6027950E-06
 -1.6824899E-05
   5.555557      -38.88889      2.7561731E-05   1.096886     -1.2578319E-05
 -2.4524170E-05
   5.555557      -27.77778      4.4559791E-05  0.2212168     -4.3473920E-05
 -9.7771745E-06
   5.555557      -16.66667      9.4273426E-05 -0.6636944     -7.4261225E-05
  5.8075377E-05
   5.555557      -5.555557      4.7783030E-04  -1.372638     -9.4067596E-05
  4.6847953E-04
   5.555557       5.555557      4.7685535E-04  -1.372233     -9.4065166E-05
  4.6748557E-04
   5.555557       16.66666      9.3945899E-05 -0.6594344     -7.4249096E-05
  5.7557834E-05
   5.555557       27.77778      4.4590561E-05  0.2248077     -4.3468528E-05
 -9.9400777E-06
   5.555557       38.88889      2.7610726E-05   1.097906     -1.2575627E-05
 -2.4580597E-05
   5.555557       50.00000      1.8483453E-05   1.994303      7.5959583E-06
 -1.6850503E-05
   16.66666      -50.00000      5.1403182E-05   2.106626      2.6244121E-05
 -4.4198790E-05
   16.66666      -38.88889      7.2436240E-05   1.280246     -2.0751515E-05
 -6.9400172E-05
   16.66666      -27.77778      1.0853907E-04  0.5039129     -9.5047653E-05
 -5.2408712E-05
   16.66666      -16.66667      1.7598622E-04 -0.1768705     -1.7324068E-04
  3.0964729E-05
   16.66666      -5.555557      2.7985111E-04 -0.6835118     -2.1698528E-04
  1.7673151E-04
   16.66666       5.555557      2.7975228E-04 -0.6830906     -2.1698304E-04
  1.7657771E-04
   16.66666       16.66666      1.7595445E-04 -0.1759847     -1.7323677E-04
  3.0805706E-05
   16.66666       27.77778      1.0859597E-04  0.5046235     -9.5060197E-05
 -5.2503754E-05
   16.66666       38.88889      7.2478579E-05   1.280282     -2.0761157E-05
 -6.9441478E-05
   16.66666       50.00000      5.1427673E-05   2.106157      2.6235883E-05
 -4.4232162E-05
   27.77778      -50.00000      7.4348449E-05   2.451612      5.7341837E-05
 -4.7324473E-05
   27.77778      -38.88889      1.0242264E-04   1.701748      1.3374095E-05
 -1.0154570E-04
   27.77778      -27.77778      1.3699419E-04   1.034433     -7.0005910E-05
 -1.1775645E-04
   27.77778      -16.66667      1.8064001E-04  0.4957430     -1.5889376E-04
 -8.5927801E-05
   27.77778      -5.555557      2.2018548E-04  0.1797351     -2.1663854E-04
 -3.9362323E-05
   27.77778       5.555557      2.2019805E-04  0.1798597     -2.1664599E-04
 -3.9391562E-05
   27.77778       16.66666      1.8068204E-04  0.4959693     -1.5891127E-04
 -8.5983753E-05
   27.77778       27.77778      1.3703127E-04   1.034482     -7.0019094E-05
 -1.1779174E-04
   27.77778       38.88889      1.0244641E-04   1.701549      1.3357027E-05
 -1.0157193E-04
   27.77778       50.00000      7.4355579E-05   2.451212      5.7328441E-05
 -4.7351896E-05
   38.88889      -50.00000      9.0347377E-05   2.946317      8.8630251E-05
 -1.7530741E-05
   38.88889      -38.88889      1.1298603E-04   2.268322      7.2573523E-05
 -8.6596345E-05
   38.88889      -27.77778      1.4341752E-04   1.695616      1.7854876E-05
 -1.4230175E-04
   38.88889      -16.66667      1.6896329E-04   1.263215     -5.1154326E-05
 -1.6103363E-04
   38.88889      -5.555557      1.9175220E-04   1.029910     -9.8732417E-05
 -1.6438009E-04
   38.88889       5.555557      1.9176015E-04   1.029908     -9.8736855E-05
 -1.6438670E-04
   38.88889       16.66666      1.6898380E-04   1.263177     -5.1166731E-05
 -1.6105120E-04
   38.88889       27.77778      1.4343561E-04   1.695484      1.7838323E-05
 -1.4232205E-04
   38.88889       38.88889      1.1299498E-04   2.268068      7.2557305E-05
 -8.6621614E-05
   38.88889       50.00000      9.0342044E-05   2.946005      8.8619548E-05
 -1.7557359E-05
   50.00000      -50.00000      9.6197182E-05  -2.735499      8.8373541E-05
  3.8000198E-05
   50.00000      -38.88889      1.1612957E-04   2.940701      1.1379411E-04
 -2.3172821E-05
   50.00000      -27.77778      1.3386187E-04   2.437980      1.0207097E-04
 -8.6605534E-05
   50.00000      -16.66667      1.5437171E-04   2.077597      7.4929325E-05
 -1.3496749E-04
   50.00000      -5.555557      1.6599731E-04   1.888713      5.1888775E-05
 -1.5767898E-04
   50.00000       5.555557      1.6600065E-04   1.888683      5.1885076E-05
 -1.5768372E-04
   50.00000       16.66666      1.5438712E-04   2.077503      7.4924144E-05
 -1.3498797E-04
   50.00000       27.77778      1.3386694E-04   2.437813      1.0206035E-04
 -8.6625871E-05
   50.00000       38.88889      1.1612588E-04   2.940478      1.1378530E-04
 -2.3197554E-05
   50.00000       50.00000      9.6186719E-05  -2.735743      8.8373214E-05
  3.7974463E-05
           1           2          12          11
           2           3          13          12
           3           4          14          13
           4           5          15          14
           5           6          16          15
           6           7          17          16
           7           8          18          17
           8           9          19          18
           9          10          20          19
          11          12          22          21
          12          13          23          22
          13          14          24          23
          14          15          25          24
          15          16          26          25
          16          17          27          26
          17          18          28          27
          18          19          29          28
          19          20          30          29
          21          22          32          31
          22          23          33          32
          23          24          34          33
          24          25          35          34
          25          26          36          35
          26          27          37          36
          27          28          38          37
          28          29          39          38
          29          30          40          39
          31          32          42          41
          32          33          43          42
          33          34          44          43
          34          35          45          44
          35          36          46          45
          36          37          47          46
          37          38          48          47
          38          39          49          48
          39          40          50          49
          41          42          52          51
          42          43          53          52
          43          44          54          53
          44          45          55          54
          45          46          56          55
          46          47          57          56
          47          48          58          57
          48          49          59          58
          49          50          60          59
          51          52          62          61
          52          53          63          62
          53          54          64          63
          54          55          65          64
          55          56          66          65
          56          57          67          66
          57          58          68          67
          58          59          69          68
          59          60          70          69
          61          62          72          71
          62          63          73          72
          63          64          74          73
          64          65          75          74
          65          66          76          75
          66          67          77          76
          67          68          78          77
          68          69          79          78
          69          70          80          79
          71          72          82          81
          72          73          83          82
          73          74          84          83
          74          75          85          84
          75          76          86          85
          76          77          87          86
          77          78          88          87
          78          79          89          88
          79          80          90          89
          81          82          92          91
          82          83          93          92
          83          84          94          93
          84          85          95          94
          85          86          96          95
          86          87          97          96
          87          88          98          97
          88          89          99          98
          89          90         100          99
