 VARIABLES="X" "Y" "abs(eta) (m)" "angle(phi) (rad)" "PRE1" "PRE2"
ZONE N=    100 ,E =      81 ,F=FEPOINT,ET=QUADRILATERAL
  -50.00000      -50.00000      4.7003365E-08  -1.701283      6.1159104E-09
  4.6603777E-08
  -50.00000      -38.88889      6.1231439E-08  -1.671538      6.1581549E-09
  6.0920982E-08
  -50.00000      -27.77778      5.3514668E-08   1.686882      6.1983503E-09
 -5.3154494E-08
  -50.00000      -16.66667      6.5012955E-09   2.856917      6.2396364E-09
 -1.8258638E-09
  -50.00000      -5.555557      3.4894974E-08   1.751699      6.2782313E-09
 -3.4325545E-08
  -50.00000       5.555557      1.0123439E-07   1.633249      6.3181997E-09
 -1.0103703E-07
  -50.00000       16.66666      1.3317167E-07   1.618572      6.3599050E-09
 -1.3301971E-07
  -50.00000       27.77778      8.2574417E-08   1.648334      6.3962329E-09
 -8.2326316E-08
  -50.00000       38.88889      1.9415793E-07   1.603963      6.4384249E-09
 -1.9405115E-07
  -50.00000       50.00000      1.7599241E-07   1.607607      6.4769536E-09
 -1.7587318E-07
  -38.88889      -50.00000      9.7279205E-08  -1.633733      6.1183849E-09
  9.7086605E-08
  -38.88889      -38.88889      1.6243982E-08  -1.959569      6.1573311E-09
  1.5031773E-08
  -38.88889      -27.77778      1.6443040E-07  -1.608512      6.2001972E-09
  1.6431346E-07
  -38.88889      -16.66667      1.7154383E-07  -1.607181      6.2401311E-09
  1.7143030E-07
  -38.88889      -5.555557      1.5786517E-08   1.980066      6.2820718E-09
 -1.4482739E-08
  -38.88889       5.555557      1.3660144E-07   1.617079      6.3199850E-09
 -1.3645517E-07
  -38.88889       16.66666      3.1540463E-07   1.590967      6.3616175E-09
 -3.1534046E-07
  -38.88889       27.77778      3.0241256E-07   1.591966      6.4015744E-09
 -3.0234480E-07
  -38.88889       38.88889      1.5047192E-07   1.613595      6.4380870E-09
 -1.5033413E-07
  -38.88889       50.00000      2.3081869E-07   1.598868      6.4785799E-09
 -2.3072775E-07
  -27.77778      -50.00000      4.2021490E-08   1.716901      6.1177214E-09
 -4.1573781E-08
  -27.77778      -38.88889      2.5699902E-07  -1.594762      6.1584586E-09
  2.5692520E-07
  -27.77778      -27.77778      2.2836620E-07  -1.597952      6.2007750E-09
  2.2828200E-07
  -27.77778      -16.66667      3.9020466E-07  -1.586790      6.2406018E-09
  3.9015475E-07
  -27.77778      -5.555557      2.7529626E-07  -1.593612      6.2805849E-09
  2.7522461E-07
  -27.77778       5.555557      4.3534527E-07   1.585314      6.3201084E-09
 -4.3529940E-07
  -27.77778       16.66666      5.4556750E-07   1.582458      6.3622800E-09
 -5.4553038E-07
  -27.77778       27.77778      3.8033480E-07   1.587634      6.4037207E-09
 -3.8028088E-07
  -27.77778       38.88889      3.9653168E-07   1.587039      6.4406285E-09
 -3.9647938E-07
  -27.77778       50.00000      9.4325465E-08   1.639543      6.4794858E-09
 -9.4102653E-08
  -16.66667      -50.00000      1.2853899E-07  -1.618437      6.1213110E-09
  1.2839315E-07
  -16.66667      -38.88889      4.9345186E-07  -1.583278      6.1591532E-09
  4.9341344E-07
  -16.66667      -27.77778      6.9952188E-07  -1.579662      6.2019043E-09
  6.9949436E-07
  -16.66667      -16.66667      3.0375571E-07   1.591357      6.2450134E-09
 -3.0369151E-07
  -16.66667      -5.555557      1.9499892E-06  -1.574019      6.2832806E-09
  1.9499789E-06
  -16.66667       5.555557      2.1533485E-06   1.573732      6.3224399E-09
 -2.1533392E-06
  -16.66667       16.66666      1.0527224E-07  -1.631282      6.3635794E-09
  1.0507972E-07
  -16.66667       27.77778      8.6011613E-07   1.578240      6.4023289E-09
 -8.6009231E-07
  -16.66667       38.88889      6.4246456E-07   1.580821      6.4404517E-09
 -6.4243227E-07
  -16.66667       50.00000      2.6536523E-07   1.595227      6.4824732E-09
 -2.6528605E-07
  -5.555557      -50.00000      2.3062219E-07  -1.597330      6.1184835E-09
  2.3054102E-07
  -5.555557      -38.88889      3.4735285E-07  -1.588536      6.1616490E-09
  3.4729820E-07
  -5.555557      -27.77778      1.6860155E-06  -1.574476      6.2031176E-09
  1.6860041E-06
  -5.555557      -16.66667      6.0309867E-06  -1.571831      6.2422378E-09
  6.0309835E-06
  -5.555557      -5.555557      2.6638338E-05  -1.571032      6.2844330E-09
  2.6638338E-05
  -5.555557       5.555557      2.7133177E-05   1.571029      6.3240480E-09
 -2.7133177E-05
  -5.555557       16.66666      6.2814065E-06   1.571809      6.3629861E-09
 -6.2814033E-06
  -5.555557       27.77778      1.8671353E-06   1.574225      6.4012640E-09
 -1.8671243E-06
  -5.555557       38.88889      5.0271001E-07   1.583609      6.4407781E-09
 -5.0266874E-07
  -5.555557       50.00000      3.7014485E-07   1.588306      6.4806662E-09
 -3.7008812E-07
   5.555557      -50.00000      2.3007939E-07  -1.597398      6.1198455E-09
  2.2999799E-07
   5.555557      -38.88889      3.4575714E-07  -1.588618      6.1615362E-09
  3.4570223E-07
   5.555557      -27.77778      1.6810523E-06  -1.574484      6.1999739E-09
  1.6810408E-06
   5.555557      -16.66667      6.0100851E-06  -1.571835      6.2439574E-09
  6.0100820E-06
   5.555557      -5.555557      2.6591211E-05  -1.571033      6.2859375E-09
  2.6591211E-05
   5.555557       5.555557      2.7241134E-05   1.571028      6.3242624E-09
 -2.7241134E-05
   5.555557       16.66666      6.3046077E-06   1.571806      6.3640666E-09
 -6.3046045E-06
   5.555557       27.77778      1.8723423E-06   1.574217      6.4041585E-09
 -1.8723314E-06
   5.555557       38.88889      5.0349257E-07   1.583590      6.4415202E-09
 -5.0345136E-07
   5.555557       50.00000      3.7063370E-07   1.588285      6.4814611E-09
 -3.7057703E-07
   16.66666      -50.00000      1.2755390E-07  -1.618761      6.1157879E-09
  1.2740720E-07
   16.66666      -38.88889      4.8974908E-07  -1.583377      6.1614283E-09
  4.8971032E-07
   16.66666      -27.77778      6.9232777E-07  -1.579757      6.2035164E-09
  6.9229998E-07
   16.66666      -16.66667      3.1733370E-07   1.590468      6.2421215E-09
 -3.1727231E-07
   16.66666      -5.555557      1.8850818E-06  -1.574130      6.2849699E-09
  1.8850714E-06
   16.66666       5.555557      2.2205968E-06   1.573645      6.3249379E-09
 -2.2205877E-06
   16.66666       16.66666      8.8957115E-08  -1.642365      6.3610699E-09
  8.8729394E-08
   16.66666       27.77778      8.6781790E-07   1.578172      6.4004935E-09
 -8.6779431E-07
   16.66666       38.88889      6.4621673E-07   1.580761      6.4395338E-09
 -6.4618467E-07
   16.66666       50.00000      2.6637193E-07   1.595132      6.4816486E-09
 -2.6629306E-07
   27.77778      -50.00000      4.2163439E-08   1.716409      6.1178409E-09
 -4.1717232E-08
   27.77778      -38.88889      2.5347285E-07  -1.595105      6.1609033E-09
  2.5339796E-07
   27.77778      -27.77778      2.2070962E-07  -1.598894      6.2005627E-09
  2.2062251E-07
   27.77778      -16.66667      3.7808763E-07  -1.587300      6.2397070E-09
  3.7803613E-07
   27.77778      -5.555557      2.4995728E-07  -1.595928      6.2812466E-09
  2.4987835E-07
   27.77778       5.555557      4.6090989E-07   1.584510      6.3206969E-09
 -4.6086654E-07
   27.77778       16.66666      5.5819248E-07   1.582191      6.3605743E-09
 -5.5815622E-07
   27.77778       27.77778      3.8463472E-07   1.587440      6.4013377E-09
 -3.8458145E-07
   27.77778       38.88889      4.0018355E-07   1.586888      6.4392709E-09
 -4.0013174E-07
   27.77778       50.00000      9.4538642E-08   1.639383      6.4790249E-09
 -9.4316370E-08
   38.88889      -50.00000      9.5400615E-08  -1.634933      6.1144876E-09
  9.5204470E-08
   38.88889      -38.88889      1.5216495E-08  -1.987603      6.1602812E-09
  1.3913757E-08
   38.88889      -27.77778      1.5948247E-07  -1.609687      6.2008843E-09
  1.5936187E-07
   38.88889      -16.66667      1.6285962E-07  -1.609133      6.2420393E-09
  1.6273995E-07
   38.88889      -5.555557      2.4299840E-08   1.832194      6.2798380E-09
 -2.3474366E-08
   38.88889       5.555557      1.4439827E-07   1.614585      6.3210250E-09
 -1.4425986E-07
   38.88889       16.66666      3.2417651E-07   1.590425      6.3626615E-09
 -3.2411407E-07
   38.88889       27.77778      3.0749652E-07   1.591619      6.4025794E-09
 -3.0742984E-07
   38.88889       38.88889      1.5168605E-07   1.613275      6.4414527E-09
 -1.5154922E-07
   38.88889       50.00000      2.3270471E-07   1.598639      6.4783316E-09
 -2.3261451E-07
   50.00000      -50.00000      4.5445130E-08  -1.705795      6.1164083E-09
  4.5031648E-08
   50.00000      -38.88889      5.8869158E-08  -1.675562      6.1561720E-09
  5.8546387E-08
   50.00000      -27.77778      5.3774674E-08   1.686325      6.1986838E-09
 -5.3416212E-08
   50.00000      -16.66667      7.8411055E-09   2.490648      6.2376917E-09
 -4.7512243E-09
   50.00000      -5.555557      3.9333798E-08   1.731112      6.2788601E-09
 -3.8829416E-08
   50.00000       5.555557      1.0582225E-07   1.630550      6.3195293E-09
 -1.0563339E-07
   50.00000       16.66666      1.3619089E-07   1.617493      6.3573835E-09
 -1.3604243E-07
   50.00000       27.77778      8.2944211E-08   1.648035      6.4001404E-09
 -8.2696921E-08
   50.00000       38.88889      1.9657465E-07   1.603551      6.4376491E-09
 -1.9646920E-07
   50.00000       50.00000      1.7758660E-07   1.607266      6.4750294E-09
 -1.7746852E-07
           1           2          12          11
           2           3          13          12
           3           4          14          13
           4           5          15          14
           5           6          16          15
           6           7          17          16
           7           8          18          17
           8           9          19          18
           9          10          20          19
          11          12          22          21
          12          13          23          22
          13          14          24          23
          14          15          25          24
          15          16          26          25
          16          17          27          26
          17          18          28          27
          18          19          29          28
          19          20          30          29
          21          22          32          31
          22          23          33          32
          23          24          34          33
          24          25          35          34
          25          26          36          35
          26          27          37          36
          27          28          38          37
          28          29          39          38
          29          30          40          39
          31          32          42          41
          32          33          43          42
          33          34          44          43
          34          35          45          44
          35          36          46          45
          36          37          47          46
          37          38          48          47
          38          39          49          48
          39          40          50          49
          41          42          52          51
          42          43          53          52
          43          44          54          53
          44          45          55          54
          45          46          56          55
          46          47          57          56
          47          48          58          57
          48          49          59          58
          49          50          60          59
          51          52          62          61
          52          53          63          62
          53          54          64          63
          54          55          65          64
          55          56          66          65
          56          57          67          66
          57          58          68          67
          58          59          69          68
          59          60          70          69
          61          62          72          71
          62          63          73          72
          63          64          74          73
          64          65          75          74
          65          66          76          75
          66          67          77          76
          67          68          78          77
          68          69          79          78
          69          70          80          79
          71          72          82          81
          72          73          83          82
          73          74          84          83
          74          75          85          84
          75          76          86          85
          76          77          87          86
          77          78          88          87
          78          79          89          88
          79          80          90          89
          81          82          92          91
          82          83          93          92
          83          84          94          93
          84          85          95          94
          85          86          96          95
          86          87          97          96
          87          88          98          97
          88          89          99          98
          89          90         100          99
