 VARIABLES="X" "Y" "abs(eta) (m)" "angle(phi) (rad)" "PRE1" "PRE2"
ZONE N=    100 ,E =      81 ,F=FEPOINT,ET=QUADRILATERAL
  -50.00000      -50.00000      1.4471311E-04   1.750320      2.5840063E-05
 -1.4238741E-04
  -50.00000      -38.88889      1.6872067E-04  0.9909954     -9.2434864E-05
 -1.4114694E-04
  -50.00000      -27.77778      1.9985130E-04  0.3628802     -1.8683665E-04
 -7.0940885E-05
  -50.00000      -16.66667      2.2664030E-04 -9.4122030E-02 -2.2563715E-04
  2.1300364E-05
  -50.00000      -5.555557      2.4535062E-04 -0.3327666     -2.3189123E-04
  8.0146005E-05
  -50.00000       5.555557      2.4535187E-04 -0.3327784     -2.3189145E-04
  8.0149162E-05
  -50.00000       16.66666      2.2665322E-04 -9.4150022E-02 -2.2564942E-04
  2.1307895E-05
  -50.00000       27.77778      1.9986510E-04  0.3628170     -1.8685404E-04
 -7.0933966E-05
  -50.00000       38.88889      1.6874241E-04  0.9908783     -9.2463306E-05
 -1.4115431E-04
  -50.00000       50.00000      1.4473134E-04   1.750129      2.5816129E-05
 -1.4241028E-04
  -38.88889      -50.00000      1.3111190E-04  0.9866930     -7.2301875E-05
 -1.0937445E-04
  -38.88889      -38.88889      1.6955566E-04  0.1368713     -1.6796993E-04
 -2.3134915E-05
  -38.88889      -27.77778      2.1002913E-04 -0.5847062     -1.7513789E-04
  1.1592650E-04
  -38.88889      -16.66667      2.5820127E-04  -1.123345     -1.1171585E-04
  2.3278201E-04
  -38.88889      -5.555557      2.8716217E-04  -1.418625     -4.3529406E-05
  2.8384381E-04
  -38.88889       5.555557      2.8716138E-04  -1.418651     -4.3522054E-05
  2.8384413E-04
  -38.88889       16.66666      2.5820843E-04  -1.123391     -1.1170822E-04
  2.3279362E-04
  -38.88889       27.77778      2.1002696E-04 -0.5847397     -1.7513220E-04
  1.1593119E-04
  -38.88889       38.88889      1.6956906E-04  0.1368240     -1.6798430E-04
 -2.3128794E-05
  -38.88889       50.00000      1.3113832E-04  0.9865603     -7.2330957E-05
 -1.0938689E-04
  -27.77778      -50.00000      1.1090060E-04  0.3515809     -1.0411676E-04
 -3.8192218E-05
  -27.77778      -38.88889      1.5003319E-04 -0.5903807     -1.2463689E-04
  8.3520070E-05
  -27.77778      -27.77778      2.0514414E-04  -1.422703     -3.0269493E-05
  2.0289868E-04
  -27.77778      -16.66667      2.7827782E-04  -2.080631      1.3580867E-04
  2.4288794E-04
  -27.77778      -5.555557      3.3538471E-04  -2.470272      2.6260648E-04
  2.0861624E-04
  -27.77778       5.555557      3.3536990E-04  -2.470408      2.6262336E-04
  2.0857119E-04
  -27.77778       16.66666      2.7825651E-04  -2.080860      1.3585387E-04
  2.4283823E-04
  -27.77778       27.77778      2.0512840E-04  -1.422825     -3.0242576E-05
  2.0288677E-04
  -27.77778       38.88889      1.5002875E-04 -0.5903695     -1.2463414E-04
  8.3516206E-05
  -27.77778       50.00000      1.1092241E-04  0.3515545     -1.0413823E-04
 -3.8196980E-05
  -16.66667      -50.00000      7.5499469E-05 -0.1200428     -7.4956137E-05
  9.0414160E-06
  -16.66667      -38.88889      1.1072806E-04  -1.138635     -4.6376757E-05
  1.0054800E-04
  -16.66667      -27.77778      1.6691881E-04  -2.087698      8.2489372E-05
  1.4511166E-04
  -16.66667      -16.66667      2.5884935E-04  -2.940425      2.5362941E-04
  5.1721530E-05
  -16.66667      -5.555557      4.0942270E-04   2.756560      3.7944724E-04
 -1.5377493E-04
  -16.66667       5.555557      4.0953117E-04   2.756039      3.7946767E-04
 -1.5401322E-04
  -16.66667       16.66666      2.5884563E-04  -2.941454      2.5367882E-04
  5.1459847E-05
  -16.66667       27.77778      1.6686274E-04  -2.088211      8.2536077E-05
  1.4502057E-04
  -16.66667       38.88889      1.1071039E-04  -1.138606     -4.6372228E-05
  1.0053063E-04
  -16.66667       50.00000      7.5513795E-05 -0.1198325     -7.4972260E-05
  9.0273634E-06
  -5.555557      -50.00000      2.7354377E-05 -0.4291948     -2.4873367E-05
  1.1383217E-05
  -5.555557      -38.88889      4.1169169E-05  -1.479959     -3.7345749E-06
  4.0999432E-05
  -5.555557      -27.77778      6.6830740E-05  -2.506333      5.3793254E-05
  3.9656446E-05
  -5.555557      -16.66667      1.3561295E-04   2.739559      1.2480016E-04
 -5.3064021E-05
  -5.555557      -5.555557      6.5409194E-04   1.841781      1.7508773E-04
 -6.3022261E-04
  -5.555557       5.555557      6.5523246E-04   1.841321      1.7510232E-04
 -6.3140219E-04
  -5.555557       16.66666      1.3589383E-04   2.735362      1.2483435E-04
 -5.3698426E-05
  -5.555557       27.77778      6.6740737E-05  -2.508862      5.3820768E-05
  3.9467082E-05
  -5.555557       38.88889      4.1114832E-05  -1.479977     -3.7288717E-06
  4.0945390E-05
  -5.555557       50.00000      2.7352969E-05 -0.4280230     -2.4885407E-05
  1.1353477E-05
   5.555557      -50.00000      2.7500499E-05   2.928635      2.6879263E-05
 -5.8122832E-06
   5.555557      -38.88889      4.1081712E-05   1.804904      9.5299501E-06
 -3.9961069E-05
   5.555557      -27.77778      6.7630383E-05  0.7251541     -5.0614388E-05
 -4.4855904E-05
   5.555557      -16.66667      1.3824961E-04 -0.3504529     -1.2984643E-04
  4.7464302E-05
   5.555557      -5.555557      6.6132651E-04  -1.283559     -1.8735608E-04
  6.3423219E-04
   5.555557       5.555557      6.6108617E-04  -1.283458     -1.8735195E-04
  6.3398277E-04
   5.555557       16.66666      1.3805614E-04 -0.3467394     -1.2983984E-04
  4.6916044E-05
   5.555557       27.77778      6.7745488E-05  0.7270465     -5.0615414E-05
 -4.5028115E-05
   5.555557       38.88889      4.1151507E-05   1.804231      9.5191908E-06
 -4.0035378E-05
   5.555557       50.00000      2.7496475E-05   2.926987      2.6865717E-05
 -5.8557157E-06
   16.66666      -50.00000      7.5796437E-05   3.098893      7.5727352E-05
 -3.2354665E-06
   16.66666      -38.88889      1.1061750E-04   2.056313      5.1621355E-05
 -9.7833872E-05
   16.66666      -27.77778      1.6731716E-04   1.089231     -7.7495868E-05
 -1.4828831E-04
   16.66666      -16.66667      2.6030079E-04  0.2257576     -2.5369562E-04
 -5.8266989E-05
   16.66666      -5.555557      4.1198052E-04 -0.3671935     -3.8451731E-04
  1.4789995E-04
   16.66666       5.555557      4.1193058E-04 -0.3668372     -3.8452336E-04
  1.4774503E-04
   16.66666       16.66666      2.6036342E-04  0.2264288     -2.5371747E-04
 -5.8451311E-05
   16.66666       27.77778      1.6741901E-04   1.089347     -7.7525692E-05
 -1.4838764E-04
   16.66666       38.88889      1.1067207E-04   2.055853      5.1601754E-05
 -9.7905911E-05
   16.66666       50.00000      7.5803204E-05   3.098203      7.5731863E-05
 -3.2880116E-06
   27.77778      -50.00000      1.1157929E-04  -2.739618      1.0268534E-04
  4.3653861E-05
   27.77778      -38.88889      1.5005472E-04   2.590642      1.2785074E-04
 -7.8553203E-05
   27.77778      -27.77778      2.0510529E-04   1.747411      3.6036676E-05
 -2.0191468E-04
   27.77778      -16.66667      2.7873897E-04   1.082114     -1.3085749E-04
 -2.4611325E-04
   27.77778      -5.555557      3.3629336E-04  0.6894212     -2.5948876E-04
 -2.1391308E-04
   27.77778       5.555557      3.3631871E-04  0.6894603     -2.5949997E-04
 -2.1393935E-04
   27.77778       16.66666      2.7881082E-04   1.082116     -1.3089082E-04
 -2.4617690E-04
   27.77778       27.77778      2.0517879E-04   1.747202      3.6007190E-05
 -2.0199460E-04
   27.77778       38.88889      1.5006821E-04   2.590225      1.2782939E-04
 -7.8613717E-05
   27.77778       50.00000      1.1156143E-04  -2.740039      1.0268728E-04
  4.3603624E-05
   38.88889      -50.00000      1.3222230E-04  -2.116706      6.8649249E-05
  1.1300450E-04
   38.88889      -38.88889      1.7005329E-04  -2.971053      1.6758638E-04
  2.8860492E-05
   38.88889      -27.77778      2.1005637E-04   2.584907      1.7834020E-04
 -1.1098854E-04
   38.88889      -16.66667      2.5814908E-04   2.040883      1.1693221E-04
 -2.3014736E-04
   38.88889      -5.555557      2.8719159E-04   1.743204      4.9269205E-05
 -2.8293385E-04
   38.88889       5.555557      2.8720853E-04   1.743166      4.9261274E-05
 -2.8295242E-04
   38.88889       16.66666      2.5818366E-04   2.040749      1.1691701E-04
 -2.3019387E-04
   38.88889       27.77778      2.1006798E-04   2.584654      1.7832189E-04
 -1.1103992E-04
   38.88889       38.88889      1.7004067E-04  -2.971357      1.6758271E-04
  2.8807395E-05
   38.88889       50.00000      1.3220143E-04  -2.116978      6.8669106E-05
  1.1296801E-04
   50.00000      -50.00000      1.4598737E-04  -1.363040     -3.0112034E-05
  1.4284810E-04
   50.00000      -38.88889      1.6982768E-04  -2.120985      8.8794084E-05
  1.4476549E-04
   50.00000      -27.77778      2.0052551E-04  -2.750916      1.8541621E-04
  7.6362987E-05
   50.00000      -16.66667      2.2696798E-04   3.072943      2.2643336E-04
 -1.5569112E-05
   50.00000      -5.555557      2.4550877E-04   2.832541      2.3387720E-04
 -7.4672695E-05
   50.00000       5.555557      2.4550973E-04   2.832499      2.3387496E-04
 -7.4682874E-05
   50.00000       16.66666      2.2698034E-04   3.072815      2.2644371E-04
 -1.5598809E-05
   50.00000       27.77778      2.0051650E-04  -2.751106      1.8542237E-04
  7.6324395E-05
   50.00000       38.88889      1.6981256E-04  -2.121182      8.8814639E-05
  1.4473515E-04
   50.00000       50.00000      1.4596894E-04  -1.363200     -3.0085457E-05
  1.4283486E-04
           1           2          12          11
           2           3          13          12
           3           4          14          13
           4           5          15          14
           5           6          16          15
           6           7          17          16
           7           8          18          17
           8           9          19          18
           9          10          20          19
          11          12          22          21
          12          13          23          22
          13          14          24          23
          14          15          25          24
          15          16          26          25
          16          17          27          26
          17          18          28          27
          18          19          29          28
          19          20          30          29
          21          22          32          31
          22          23          33          32
          23          24          34          33
          24          25          35          34
          25          26          36          35
          26          27          37          36
          27          28          38          37
          28          29          39          38
          29          30          40          39
          31          32          42          41
          32          33          43          42
          33          34          44          43
          34          35          45          44
          35          36          46          45
          36          37          47          46
          37          38          48          47
          38          39          49          48
          39          40          50          49
          41          42          52          51
          42          43          53          52
          43          44          54          53
          44          45          55          54
          45          46          56          55
          46          47          57          56
          47          48          58          57
          48          49          59          58
          49          50          60          59
          51          52          62          61
          52          53          63          62
          53          54          64          63
          54          55          65          64
          55          56          66          65
          56          57          67          66
          57          58          68          67
          58          59          69          68
          59          60          70          69
          61          62          72          71
          62          63          73          72
          63          64          74          73
          64          65          75          74
          65          66          76          75
          66          67          77          76
          67          68          78          77
          68          69          79          78
          69          70          80          79
          71          72          82          81
          72          73          83          82
          73          74          84          83
          74          75          85          84
          75          76          86          85
          76          77          87          86
          77          78          88          87
          78          79          89          88
          79          80          90          89
          81          82          92          91
          82          83          93          92
          83          84          94          93
          84          85          95          94
          85          86          96          95
          86          87          97          96
          87          88          98          97
          88          89          99          98
          89          90         100          99
