 VARIABLES="X" "Y" "abs(eta) (m)" "angle(phi) (rad)" "PRE1" "PRE2"
ZONE N=    100 ,E =      81 ,F=FEPOINT,ET=QUADRILATERAL
  -50.00000      -50.00000      1.8046863E-07   1.833760      4.6911644E-08
 -1.7426481E-07
  -50.00000      -38.88889      1.2933931E-07   1.865618      3.7582030E-08
 -1.2375884E-07
  -50.00000      -27.77778      1.4165600E-07   1.763612      2.7144543E-08
 -1.3903092E-07
  -50.00000      -16.66667      1.1352296E-07   1.717754      1.6623066E-08
 -1.1229931E-07
  -50.00000      -5.555557      4.8689660E-08   1.694925      6.0282712E-09
 -4.8315037E-08
  -50.00000       5.555557      3.1574476E-08  -1.424262     -4.6101913E-09
  3.1236095E-08
  -50.00000       16.66666      9.6870401E-08  -1.413187     -1.5204542E-08
  9.5669726E-08
  -50.00000       27.77778      1.2581725E-07  -1.364641     -2.5754520E-08
  1.2315310E-07
  -50.00000       38.88889      1.1468538E-07  -1.249597     -3.6206682E-08
  1.0882010E-07
  -50.00000       50.00000      1.6526018E-07  -1.291458     -4.5565542E-08
  1.5885436E-07
  -38.88889      -50.00000      1.6418643E-07   1.868205      4.8113861E-08
 -1.5697847E-07
  -38.88889      -38.88889      2.2244211E-07   1.741448      3.7776186E-08
 -2.1921097E-07
  -38.88889      -27.77778      2.3853562E-07   1.685651      2.7336808E-08
 -2.3696401E-07
  -38.88889      -16.66667      5.4514867E-08   1.886040      1.6902227E-08
 -5.1828422E-08
  -38.88889      -5.555557      5.1860720E-08   1.689188      6.1255379E-09
 -5.1497690E-08
  -38.88889       5.555557      3.5674624E-08  -1.439328     -4.6765893E-09
  3.5366767E-08
  -38.88889       16.66666      4.1155616E-08  -1.185752     -1.5458067E-08
  3.8142272E-08
  -38.88889       27.77778      2.2162887E-07  -1.453561     -2.5923223E-08
  2.2010757E-07
  -38.88889       38.88889      2.0653312E-07  -1.393765     -3.6372104E-08
  2.0330519E-07
  -38.88889       50.00000      1.4956666E-07  -1.252859     -4.6755684E-08
  1.4207073E-07
  -27.77778      -50.00000      2.4840256E-07   1.766453      4.8292041E-08
 -2.4366310E-07
  -27.77778      -38.88889      3.3023144E-07   1.686105      3.7994116E-08
 -3.2803848E-07
  -27.77778      -27.77778      2.2664128E-07   1.693343      2.7704644E-08
 -2.2494160E-07
  -27.77778      -16.66667      3.9446061E-07   1.613801      1.6958595E-08
 -3.9409591E-07
  -27.77778      -5.555557      2.0922620E-07   1.600213      6.1537513E-09
 -2.0913568E-07
  -27.77778       5.555557      1.8533312E-07  -1.545461     -4.6949498E-09
  1.8527365E-07
  -27.77778       16.66666      3.7419096E-07  -1.529364     -1.5499273E-08
  3.7386982E-07
  -27.77778       27.77778      2.1104856E-07  -1.446014     -2.6266825E-08
  2.0940762E-07
  -27.77778       38.88889      3.1399532E-07  -1.454057     -3.6572395E-08
  3.1185817E-07
  -27.77778       50.00000      2.3304868E-07  -1.368153     -4.6903185E-08
  2.2828004E-07
  -16.66667      -50.00000      3.2325698E-07   1.721205      4.8437581E-08
 -3.1960738E-07
  -16.66667      -38.88889      1.1840522E-07   1.901641      3.8462968E-08
 -1.1198391E-07
  -16.66667      -27.77778      6.4940150E-07   1.613595      2.7785138E-08
 -6.4880680E-07
  -16.66667      -16.66667      7.1495322E-07   1.594693      1.7083364E-08
 -7.1474909E-07
  -16.66667      -5.555557      7.5003783E-07   1.579064      6.2009153E-09
 -7.5001219E-07
  -16.66667       5.555557      7.0959680E-07  -1.564129     -4.7313029E-09
  7.0958106E-07
  -16.66667       16.66666      6.9409509E-07  -1.548287     -1.5622202E-08
  6.9391928E-07
  -16.66667       27.77778      6.3176526E-07  -1.529103     -2.6332827E-08
  6.3121621E-07
  -16.66667       38.88889      1.0479238E-07  -1.209525     -3.7040330E-08
  9.8027833E-08
  -16.66667       50.00000      3.0788536E-07  -1.417411     -4.7040078E-08
  3.0427066E-07
  -5.555557      -50.00000      3.6867795E-07   1.702813      4.8530239E-08
 -3.6546990E-07
  -5.555557      -38.88889      3.1371181E-07   1.693807      3.8492495E-08
 -3.1134132E-07
  -5.555557      -27.77778      9.9407816E-07   1.598817      2.7850797E-08
 -9.9368799E-07
  -5.555557      -16.66667      2.2008453E-06   1.578570      1.7109549E-08
 -2.2007789E-06
  -5.555557      -5.555557      1.2082443E-05   1.571310      6.2080225E-09
 -1.2082442E-05
  -5.555557       5.555557      1.2053880E-05  -1.570403     -4.7450310E-09
  1.2053879E-05
  -5.555557       16.66666      2.1741521E-06  -1.563598     -1.5650860E-08
  2.1740957E-06
  -5.555557       27.77778      9.7886004E-07  -1.543824     -2.6398540E-08
  9.7850398E-07
  -5.555557       38.88889      2.9915833E-07  -1.446570     -3.7067707E-08
  2.9685299E-07
  -5.555557       50.00000      3.5371269E-07  -1.437137     -4.7136506E-08
  3.5055785E-07
   5.555557      -50.00000      3.6842096E-07   1.702920      4.8535508E-08
 -3.6520996E-07
   5.555557      -38.88889      3.1349620E-07   1.693942      3.8508290E-08
 -3.1112214E-07
   5.555557      -27.77778      9.9201498E-07   1.598878      2.7854016E-08
 -9.9162389E-07
   5.555557      -16.66667      2.1889698E-06   1.578616      1.7117504E-08
 -2.1889030E-06
   5.555557      -5.555557      1.2062822E-05   1.571311      6.2121850E-09
 -1.2062820E-05
   5.555557       5.555557      1.2092749E-05  -1.570403     -4.7520889E-09
  1.2092748E-05
   5.555557       16.66666      2.1817098E-06  -1.563622     -1.5653097E-08
  2.1816536E-06
   5.555557       27.77778      9.8099690E-07  -1.543865     -2.6416497E-08
  9.8064118E-07
   5.555557       38.88889      2.9941893E-07  -1.446677     -3.7068322E-08
  2.9711552E-07
   5.555557       50.00000      3.5397562E-07  -1.437248     -4.7132367E-08
  3.5082371E-07
   16.66666      -50.00000      3.2263839E-07   1.721456      4.8424866E-08
 -3.1898364E-07
   16.66666      -38.88889      1.1875073E-07   1.900586      3.8456680E-08
 -1.1235132E-07
   16.66666      -27.77778      6.4566962E-07   1.613840      2.7783598E-08
 -6.4507157E-07
   16.66666      -16.66667      7.0670427E-07   1.594967      1.7079548E-08
 -7.0649787E-07
   16.66666      -5.555557      7.1892754E-07   1.579412      6.1941323E-09
 -7.1890088E-07
   16.66666       5.555557      7.3646714E-07  -1.564365     -4.7365765E-09
  7.3645191E-07
   16.66666       16.66666      7.0319214E-07  -1.548569     -1.5628860E-08
  7.0301843E-07
   16.66666       27.77778      6.3565989E-07  -1.529335     -2.6347839E-08
  6.3511362E-07
   16.66666       38.88889      1.0457262E-07  -1.208790     -3.7034539E-08
  9.7795073E-08
   16.66666       50.00000      3.0851550E-07  -1.417634     -4.7068422E-08
  3.0490386E-07
   27.77778      -50.00000      2.4782875E-07   1.766891      4.8286950E-08
 -2.4307911E-07
   27.77778      -38.88889      3.2862428E-07   1.686632      3.7981231E-08
 -3.2642203E-07
   27.77778      -27.77778      2.2552192E-07   1.693939      2.7701278E-08
 -2.2381415E-07
   27.77778      -16.66667      3.8820102E-07   1.614476      1.6951022E-08
 -3.8783074E-07
   27.77778      -5.555557      1.9872141E-07   1.601718      6.1438263E-09
 -1.9862641E-07
   27.77778       5.555557      1.9592194E-07  -1.546741     -4.7124407E-09
  1.9586525E-07
   27.77778       16.66666      3.8063286E-07  -1.529993     -1.5526950E-08
  3.8031604E-07
   27.77778       27.77778      2.1235455E-07  -1.446750     -2.6274288E-08
  2.1072285E-07
   27.77778       38.88889      3.1565298E-07  -1.454615     -3.6590642E-08
  3.1352502E-07
   27.77778       50.00000      2.3364159E-07  -1.368610     -4.6917858E-08
  2.2888230E-07
   38.88889      -50.00000      1.6410053E-07   1.868312      4.8105370E-08
 -1.5689122E-07
   38.88889      -38.88889      2.2134414E-07   1.742238      3.7762074E-08
 -2.1809919E-07
   38.88889      -27.77778      2.3627356E-07   1.686718      2.7327859E-08
 -2.3468785E-07
   38.88889      -16.66667      5.5213874E-08   1.881455      1.6878099E-08
 -5.2570922E-08
   38.88889      -5.555557      5.0171653E-08   1.692912      6.1115424E-09
 -4.9798032E-08
   38.88889       5.555557      3.7402803E-08  -1.444949     -4.6946127E-09
  3.7107011E-08
   38.88889       16.66666      4.0580233E-08  -1.179492     -1.5477081E-08
  3.7512869E-08
   38.88889       27.77778      2.2392389E-07  -1.454716     -2.5934835E-08
  2.2241693E-07
   38.88889       38.88889      2.0767985E-07  -1.394639     -3.6395313E-08
  2.0446589E-07
   38.88889       50.00000      1.4968762E-07  -1.252994     -4.6774392E-08
  1.4219191E-07
   50.00000      -50.00000      1.7982275E-07   1.834629      4.6894698E-08
 -1.7360043E-07
   50.00000      -38.88889      1.2923213E-07   1.865662      3.7556358E-08
 -1.2365462E-07
   50.00000      -27.77778      1.4061271E-07   1.764830      2.7112710E-08
 -1.3797404E-07
   50.00000      -16.66667      1.1164696E-07   1.720055      1.6602433E-08
 -1.1040563E-07
   50.00000      -5.555557      4.6310834E-08   1.700684      5.9982974E-09
 -4.5920736E-08
   50.00000       5.555557      3.3947014E-08  -1.433996     -4.6294915E-09
  3.3629860E-08
   50.00000       16.66666      9.8736216E-08  -1.415942     -1.5228698E-08
  9.7554739E-08
   50.00000       27.77778      1.2687339E-07  -1.366278     -2.5767363E-08
  1.2422922E-07
   50.00000       38.88889      1.1482722E-07  -1.249760     -3.6233750E-08
  1.0896057E-07
   50.00000       50.00000      1.6593583E-07  -1.292466     -4.5590969E-08
  1.5954987E-07
           1           2          12          11
           2           3          13          12
           3           4          14          13
           4           5          15          14
           5           6          16          15
           6           7          17          16
           7           8          18          17
           8           9          19          18
           9          10          20          19
          11          12          22          21
          12          13          23          22
          13          14          24          23
          14          15          25          24
          15          16          26          25
          16          17          27          26
          17          18          28          27
          18          19          29          28
          19          20          30          29
          21          22          32          31
          22          23          33          32
          23          24          34          33
          24          25          35          34
          25          26          36          35
          26          27          37          36
          27          28          38          37
          28          29          39          38
          29          30          40          39
          31          32          42          41
          32          33          43          42
          33          34          44          43
          34          35          45          44
          35          36          46          45
          36          37          47          46
          37          38          48          47
          38          39          49          48
          39          40          50          49
          41          42          52          51
          42          43          53          52
          43          44          54          53
          44          45          55          54
          45          46          56          55
          46          47          57          56
          47          48          58          57
          48          49          59          58
          49          50          60          59
          51          52          62          61
          52          53          63          62
          53          54          64          63
          54          55          65          64
          55          56          66          65
          56          57          67          66
          57          58          68          67
          58          59          69          68
          59          60          70          69
          61          62          72          71
          62          63          73          72
          63          64          74          73
          64          65          75          74
          65          66          76          75
          66          67          77          76
          67          68          78          77
          68          69          79          78
          69          70          80          79
          71          72          82          81
          72          73          83          82
          73          74          84          83
          74          75          85          84
          75          76          86          85
          76          77          87          86
          77          78          88          87
          78          79          89          88
          79          80          90          89
          81          82          92          91
          82          83          93          92
          83          84          94          93
          84          85          95          94
          85          86          96          95
          86          87          97          96
          87          88          98          97
          88          89          99          98
          89          90         100          99
