 VARIABLES="X" "Y" "abs(eta) (m)" "angle(phi) (rad)" "PRE1" "PRE2"
ZONE N=    100 ,E =      81 ,F=FEPOINT,ET=QUADRILATERAL
  -50.00000      -50.00000      6.6179177E-06  -3.062890      6.5974323E-06
  5.2030811E-07
  -50.00000      -38.88889      6.7875126E-06  -3.064747      6.7674819E-06
  5.2107464E-07
  -50.00000      -27.77778      6.8001473E-06  -3.065123      6.7802744E-06
  5.1950082E-07
  -50.00000      -16.66667      6.8740251E-06  -3.065634      6.8542040E-06
  5.2163875E-07
  -50.00000      -5.555557      6.9530424E-06  -3.066312      6.9333496E-06
  5.2293490E-07
  -50.00000       5.555557      6.9530524E-06  -3.066311      6.9333591E-06
  5.2294195E-07
  -50.00000       16.66666      6.8740474E-06  -3.065632      6.8542254E-06
  5.2165211E-07
  -50.00000       27.77778      6.8001536E-06  -3.065122      6.7802807E-06
  5.1950303E-07
  -50.00000       38.88889      6.7875580E-06  -3.064744      6.7675255E-06
  5.2109925E-07
  -50.00000       50.00000      6.6179491E-06  -3.062887      6.5974623E-06
  5.2032914E-07
  -38.88889      -50.00000      6.7874812E-06  -3.064813      6.7674846E-06
  5.2062813E-07
  -38.88889      -38.88889      6.8242093E-06  -3.065287      6.8043519E-06
  5.2021790E-07
  -38.88889      -27.77778      7.0655706E-06  -3.067466      7.0461674E-06
  5.2326919E-07
  -38.88889      -16.66667      7.4159366E-06  -3.070569      7.3972401E-06
  5.2626450E-07
  -38.88889      -5.555557      7.6691103E-06  -3.073161      7.6511606E-06
  5.2439896E-07
  -38.88889       5.555557      7.6691331E-06  -3.073160      7.6511833E-06
  5.2440737E-07
  -38.88889       16.66666      7.4160162E-06  -3.070563      7.3973165E-06
  5.2631458E-07
  -38.88889       27.77778      7.0656470E-06  -3.067460      7.0462406E-06
  5.2331694E-07
  -38.88889       38.88889      6.8242430E-06  -3.065285      6.8043846E-06
  5.2023427E-07
  -38.88889       50.00000      6.7875380E-06  -3.064809      6.7675392E-06
  5.2065974E-07
  -27.77778      -50.00000      6.8001409E-06  -3.065143      6.7802785E-06
  5.1936291E-07
  -27.77778      -38.88889      7.0654851E-06  -3.067627      7.0461665E-06
  5.2212488E-07
  -27.77778      -27.77778      7.6689885E-06  -3.073351      7.6511387E-06
  5.2293746E-07
  -27.77778      -16.66667      7.9567526E-06  -3.075072      7.9391548E-06
  5.2889544E-07
  -27.77778      -5.555557      8.6115388E-06  -3.078706      8.5945167E-06
  5.4119386E-07
  -27.77778       5.555557      8.6116434E-06  -3.078699      8.5946167E-06
  5.4126218E-07
  -27.77778       16.66666      7.9569090E-06  -3.075061      7.9393049E-06
  5.2899651E-07
  -27.77778       27.77778      7.6691013E-06  -3.073344      7.6512470E-06
  5.2300300E-07
  -27.77778       38.88889      7.0655956E-06  -3.067619      7.0462725E-06
  5.2219133E-07
  -27.77778       50.00000      6.8001491E-06  -3.065142      6.7802866E-06
  5.1936740E-07
  -16.66667      -50.00000      6.8739041E-06  -3.065867      6.8542045E-06
  5.2003503E-07
  -16.66667      -38.88889      7.4156537E-06  -3.071105      7.3972387E-06
  5.2228222E-07
  -16.66667      -27.77778      7.9564988E-06  -3.075552      7.9391548E-06
  5.2507056E-07
  -16.66667      -16.66667      9.5590067E-06  -3.087548      9.5450505E-06
  5.1635794E-07
  -16.66667      -5.555557      1.1662552E-05  -3.090517      1.1647342E-05
  5.9541804E-07
  -16.66667       5.555557      1.1663053E-05  -3.090493      1.1647829E-05
  5.9572051E-07
  -16.66667       16.66666      9.5591540E-06  -3.087527      9.5451860E-06
  5.1657156E-07
  -16.66667       27.77778      7.9567571E-06  -3.075533      7.9394022E-06
  5.2523654E-07
  -16.66667       38.88889      7.4158388E-06  -3.071091      7.3974161E-06
  5.2239784E-07
  -16.66667       50.00000      6.8739705E-06  -3.065862      6.8542681E-06
  5.2007408E-07
  -5.555557      -50.00000      6.9527964E-06  -3.066781      6.9333487E-06
  5.1966651E-07
  -5.555557      -38.88889      7.6688220E-06  -3.073725      7.6511678E-06
  5.2006379E-07
  -5.555557      -27.77778      8.6104528E-06  -3.080738      8.5945139E-06
  5.2366164E-07
  -5.555557      -16.66667      1.1660048E-05  -3.094887      1.1647332E-05
  5.4439124E-07
  -5.555557      -5.555557      2.2307542E-05  -3.103276      2.2291169E-05
  8.5454235E-07
  -5.555557       5.555557      2.2312664E-05  -3.103222      2.2296241E-05
  8.5593081E-07
  -5.555557       16.66666      1.1661573E-05  -3.094818      1.1648818E-05
  5.4527072E-07
  -5.555557       27.77778      8.6109812E-06  -3.080703      8.5950232E-06
  5.2399736E-07
  -5.555557       38.88889      7.6689803E-06  -3.073713      7.6513197E-06
  5.2016526E-07
  -5.555557       50.00000      6.9528978E-06  -3.066773      6.9334460E-06
  5.1972643E-07
   5.555557      -50.00000      6.9527496E-06  -3.066897      6.9333623E-06
  5.1885638E-07
   5.555557      -38.88889      7.6687411E-06  -3.073911      7.6511833E-06
  5.1863407E-07
   5.555557      -27.77778      8.6100299E-06  -3.081748      8.5946167E-06
  5.1496158E-07
   5.555557      -16.66667      1.1658286E-05  -3.099237      1.1647830E-05
  4.9364695E-07
   5.555557      -5.555557      2.2296983E-05  -3.133411      2.2296237E-05
  1.8241585E-07
   5.555557       5.555557      2.2302047E-05  -3.133385      2.2301296E-05
  1.8303980E-07
   5.555557       16.66666      1.1659804E-05  -3.099169      1.1649313E-05
  4.9450000E-07
   5.555557       27.77778      8.6105574E-06  -3.081712      8.5951251E-06
  5.1529406E-07
   5.555557       38.88889      7.6689021E-06  -3.073898      7.6513370E-06
  5.1874855E-07
   5.555557       50.00000      6.9528487E-06  -3.066890      6.9334574E-06
  5.1891561E-07
   16.66666      -50.00000      6.8738091E-06  -3.066098      6.8542299E-06
  5.1844381E-07
   16.66666      -38.88889      7.4153172E-06  -3.071902      7.3973174E-06
  5.1635720E-07
   16.66666      -27.77778      7.9559059E-06  -3.076980      7.9393049E-06
  5.1369159E-07
   16.66666      -16.66667      9.5594705E-06  -3.086919      9.5451869E-06
  5.2239045E-07
   16.66666      -5.555557      1.1657249E-05  -3.103568      1.1648823E-05
  4.4315868E-07
   16.66666       5.555557      1.1657748E-05  -3.103546      1.1649312E-05
  4.4343500E-07
   16.66666       16.66666      9.5596170E-06  -3.086901      9.5453233E-06
  5.2257144E-07
   16.66666       27.77778      7.9561632E-06  -3.076962      7.9395522E-06
  5.1385138E-07
   16.66666       38.88889      7.4155018E-06  -3.071889      7.3974943E-06
  5.1647174E-07
   16.66666       50.00000      6.8738736E-06  -3.066093      6.8542918E-06
  5.1848241E-07
   27.77778      -50.00000      6.8001204E-06  -3.065193      6.7802844E-06
  5.1902066E-07
   27.77778      -38.88889      7.0651454E-06  -3.068429      7.0462443E-06
  5.1645026E-07
   27.77778      -27.77778      7.6686219E-06  -3.074280      7.6512551E-06
  5.1580929E-07
   27.77778      -16.66667      7.9557631E-06  -3.077453      7.9394040E-06
  5.0992821E-07
   27.77778      -5.555557      8.6094242E-06  -3.083753      8.5950269E-06
  4.9768823E-07
   27.77778       5.555557      8.6095260E-06  -3.083746      8.5951251E-06
  4.9775366E-07
   27.77778       16.66666      7.9559186E-06  -3.077443      7.9395541E-06
  5.1002280E-07
   27.77778       27.77778      7.6687365E-06  -3.074268      7.6513634E-06
  5.1590462E-07
   27.77778       38.88889      7.0652522E-06  -3.068421      7.0463466E-06
  5.1651517E-07
   27.77778       50.00000      6.8001304E-06  -3.065193      6.7802939E-06
  5.1902435E-07
   38.88889      -50.00000      6.7872866E-06  -3.065269      6.7675269E-06
  5.1752937E-07
   38.88889      -38.88889      6.8240902E-06  -3.065579      6.8043851E-06
  5.1822144E-07
   38.88889      -27.77778      7.0650904E-06  -3.068588      7.0462715E-06
  5.1532425E-07
   38.88889      -16.66667      7.4151480E-06  -3.072431      7.3974202E-06
  5.1243887E-07
   38.88889      -5.555557      7.6685956E-06  -3.074459      7.6513215E-06
  5.1443146E-07
   38.88889       5.555557      7.6686147E-06  -3.074456      7.6513388E-06
  5.1445426E-07
   38.88889       16.66666      7.4152294E-06  -3.072425      7.3974984E-06
  5.1248810E-07
   38.88889       27.77778      7.0651654E-06  -3.068583      7.0463434E-06
  5.1537035E-07
   38.88889       38.88889      6.8241193E-06  -3.065578      6.8044128E-06
  5.1823616E-07
   38.88889       50.00000      6.7873411E-06  -3.065265      6.7675792E-06
  5.1756075E-07
   50.00000      -50.00000      6.6177427E-06  -3.063298      6.5974696E-06
  5.1760202E-07
   50.00000      -38.88889      6.7872652E-06  -3.065334      6.7675392E-06
  5.1708963E-07
   50.00000      -27.77778      6.8001173E-06  -3.065213      6.7802916E-06
  5.1888412E-07
   50.00000      -16.66667      6.8737340E-06  -3.066327      6.8542740E-06
  5.1686516E-07
   50.00000      -5.555557      6.9525963E-06  -3.067359      6.9334487E-06
  5.1563950E-07
   50.00000       5.555557      6.9526068E-06  -3.067359      6.9334587E-06
  5.1564609E-07
   50.00000       16.66666      6.8737540E-06  -3.066326      6.8542931E-06
  5.1687783E-07
   50.00000       27.77778      6.8001223E-06  -3.065213      6.7802966E-06
  5.1888628E-07
   50.00000       38.88889      6.7873052E-06  -3.065330      6.7675774E-06
  5.1711430E-07
   50.00000       50.00000      6.6177809E-06  -3.063296      6.5975064E-06
  5.1762294E-07
           1           2          12          11
           2           3          13          12
           3           4          14          13
           4           5          15          14
           5           6          16          15
           6           7          17          16
           7           8          18          17
           8           9          19          18
           9          10          20          19
          11          12          22          21
          12          13          23          22
          13          14          24          23
          14          15          25          24
          15          16          26          25
          16          17          27          26
          17          18          28          27
          18          19          29          28
          19          20          30          29
          21          22          32          31
          22          23          33          32
          23          24          34          33
          24          25          35          34
          25          26          36          35
          26          27          37          36
          27          28          38          37
          28          29          39          38
          29          30          40          39
          31          32          42          41
          32          33          43          42
          33          34          44          43
          34          35          45          44
          35          36          46          45
          36          37          47          46
          37          38          48          47
          38          39          49          48
          39          40          50          49
          41          42          52          51
          42          43          53          52
          43          44          54          53
          44          45          55          54
          45          46          56          55
          46          47          57          56
          47          48          58          57
          48          49          59          58
          49          50          60          59
          51          52          62          61
          52          53          63          62
          53          54          64          63
          54          55          65          64
          55          56          66          65
          56          57          67          66
          57          58          68          67
          58          59          69          68
          59          60          70          69
          61          62          72          71
          62          63          73          72
          63          64          74          73
          64          65          75          74
          65          66          76          75
          66          67          77          76
          67          68          78          77
          68          69          79          78
          69          70          80          79
          71          72          82          81
          72          73          83          82
          73          74          84          83
          74          75          85          84
          75          76          86          85
          76          77          87          86
          77          78          88          87
          78          79          89          88
          79          80          90          89
          81          82          92          91
          82          83          93          92
          83          84          94          93
          84          85          95          94
          85          86          96          95
          86          87          97          96
          87          88          98          97
          88          89          99          98
          89          90         100          99
