 VARIABLES="X" "Y" "abs(eta) (m)" "angle(phi) (rad)" "PRE1" "PRE2"
ZONE N=    100 ,E =      81 ,F=FEPOINT,ET=QUADRILATERAL
  -50.00000      -50.00000      2.1530823E-04   2.192385      1.2537985E-04
 -1.7503579E-04
  -50.00000      -38.88889      2.2344895E-04   2.181582      1.2815044E-04
 -1.8304889E-04
  -50.00000      -27.77778      2.3256599E-04   2.165236      1.3024743E-04
 -1.9267212E-04
  -50.00000      -16.66667      2.4158381E-04   2.147119      1.3164971E-04
 -2.0256132E-04
  -50.00000      -5.555557      2.4723311E-04   2.135702      1.3235288E-04
 -2.0882272E-04
  -50.00000       5.555557      2.4723384E-04   2.135701      1.3235299E-04
 -2.0882351E-04
  -50.00000       16.66666      2.4158563E-04   2.147115      1.3164995E-04
 -2.0256334E-04
  -50.00000       27.77778      2.3256820E-04   2.165232      1.3024788E-04
 -1.9267449E-04
  -50.00000       38.88889      2.2345081E-04   2.181579      1.2815100E-04
 -1.8305078E-04
  -50.00000       50.00000      2.1531103E-04   2.192380      1.2538061E-04
 -1.7503869E-04
  -38.88889      -50.00000      2.2344897E-04   2.181582      1.2815045E-04
 -1.8304891E-04
  -38.88889      -38.88889      2.3672958E-04   2.156943      1.3094812E-04
 -1.9721432E-04
  -38.88889      -27.77778      2.5380714E-04   2.122623      1.3305688E-04
 -2.1613407E-04
  -38.88889      -16.66667      2.6758137E-04   2.097340      1.3447260E-04
 -2.3133721E-04
  -38.88889      -5.555557      2.7225635E-04   2.090407      1.3518680E-04
 -2.3632191E-04
  -38.88889       5.555557      2.7225711E-04   2.090406      1.3518683E-04
 -2.3632277E-04
  -38.88889       16.66666      2.6758216E-04   2.097340      1.3447284E-04
 -2.3133800E-04
  -38.88889       27.77778      2.5381119E-04   2.122616      1.3305730E-04
 -2.1613856E-04
  -38.88889       38.88889      2.3673312E-04   2.156936      1.3094865E-04
 -1.9721821E-04
  -38.88889       50.00000      2.2345125E-04   2.181578      1.2815112E-04
 -1.8305123E-04
  -27.77778      -50.00000      2.3256593E-04   2.165236      1.3024732E-04
 -1.9267212E-04
  -27.77778      -38.88889      2.5380717E-04   2.122623      1.3305689E-04
 -2.1613408E-04
  -27.77778      -27.77778      2.7225548E-04   2.090409      1.3518671E-04
 -2.3632098E-04
  -27.77778      -16.66667      2.9894282E-04   2.045416      1.3661692E-04
 -2.6589967E-04
  -27.77778      -5.555557      3.2562591E-04   2.006173      1.3733326E-04
 -2.9524873E-04
  -27.77778       5.555557      3.2562957E-04   2.006168      1.3733334E-04
 -2.9525274E-04
  -27.77778       16.66666      2.9895001E-04   2.045405      1.3661719E-04
 -2.6590758E-04
  -27.77778       27.77778      2.7225949E-04   2.090402      1.3518713E-04
 -2.3632534E-04
  -27.77778       38.88889      2.5381276E-04   2.122612      1.3305746E-04
 -2.1614031E-04
  -27.77778       50.00000      2.3256995E-04   2.165229      1.3024817E-04
 -1.9267639E-04
  -16.66667      -50.00000      2.4158388E-04   2.147119      1.3164975E-04
 -2.0256139E-04
  -16.66667      -38.88889      2.6758137E-04   2.097340      1.3447260E-04
 -2.3133721E-04
  -16.66667      -27.77778      2.9894273E-04   2.045416      1.3661686E-04
 -2.6589958E-04
  -16.66667      -16.66667      3.4981969E-04   1.976473      1.3805299E-04
 -3.2142681E-04
  -16.66667      -5.555557      4.3576563E-04   1.894895      1.3877140E-04
 -4.1307890E-04
  -16.66667       5.555557      4.3578056E-04   1.894883      1.3877136E-04
 -4.1309468E-04
  -16.66667       16.66666      3.4983421E-04   1.976456      1.3805323E-04
 -3.2144249E-04
  -16.66667       27.77778      2.9895472E-04   2.045397      1.3661735E-04
 -2.6591282E-04
  -16.66667       38.88889      2.6758335E-04   2.097338      1.3447316E-04
 -2.3133920E-04
  -16.66667       50.00000      2.4158916E-04   2.147108      1.3165046E-04
 -2.0256723E-04
  -5.555557      -50.00000      2.4723308E-04   2.135703      1.3235291E-04
 -2.0882266E-04
  -5.555557      -38.88889      2.7225623E-04   2.090407      1.3518680E-04
 -2.3632179E-04
  -5.555557      -27.77778      3.2562594E-04   2.006173      1.3733325E-04
 -2.9524876E-04
  -5.555557      -16.66667      4.3576537E-04   1.894895      1.3877131E-04
 -4.1307867E-04
  -5.555557      -5.555557      7.8851444E-04   1.748622      1.3948057E-04
 -7.7608001E-04
  -5.555557       5.555557      7.8869070E-04   1.748582      1.3948062E-04
 -7.7625911E-04
  -5.555557       16.66666      4.3581057E-04   1.894860      1.3877155E-04
 -4.1312625E-04
  -5.555557       27.77778      3.2564436E-04   2.006148      1.3733367E-04
 -2.9526890E-04
  -5.555557       38.88889      2.7226191E-04   2.090398      1.3518742E-04
 -2.3632796E-04
  -5.555557       50.00000      2.4723937E-04   2.135690      1.3235364E-04
 -2.0882965E-04
   5.555557      -50.00000      2.4723381E-04   2.135701      1.3235299E-04
 -2.0882348E-04
   5.555557      -38.88889      2.7225708E-04   2.090406      1.3518689E-04
 -2.3632270E-04
   5.555557      -27.77778      3.2562957E-04   2.006168      1.3733334E-04
 -2.9525274E-04
   5.555557      -16.66667      4.3578070E-04   1.894883      1.3877136E-04
 -4.1309482E-04
   5.555557      -5.555557      7.8869052E-04   1.748582      1.3948072E-04
 -7.7625888E-04
   5.555557       5.555557      7.8886666E-04   1.748542      1.3948078E-04
 -7.7643781E-04
   5.555557       16.66666      4.3582538E-04   1.894849      1.3877169E-04
 -4.1314185E-04
   5.555557       27.77778      3.2564823E-04   2.006143      1.3733380E-04
 -2.9527309E-04
   5.555557       38.88889      2.7226264E-04   2.090397      1.3518748E-04
 -2.3632878E-04
   5.555557       50.00000      2.4724007E-04   2.135689      1.3235374E-04
 -2.0883040E-04
   16.66666      -50.00000      2.4158567E-04   2.147115      1.3165001E-04
 -2.0256336E-04
   16.66666      -38.88889      2.6758216E-04   2.097340      1.3447284E-04
 -2.3133798E-04
   16.66666      -27.77778      2.9894989E-04   2.045405      1.3661712E-04
 -2.6590750E-04
   16.66666      -16.66667      3.4983418E-04   1.976456      1.3805320E-04
 -3.2144249E-04
   16.66666      -5.555557      4.3581030E-04   1.894861      1.3877152E-04
 -4.1312599E-04
   16.66666       5.555557      4.3582523E-04   1.894849      1.3877160E-04
 -4.1314171E-04
   16.66666       16.66666      3.4984862E-04   1.976439      1.3805345E-04
 -3.2145809E-04
   16.66666       27.77778      2.9896179E-04   2.045386      1.3661754E-04
 -2.6592068E-04
   16.66666       38.88889      2.6758420E-04   2.097338      1.3447346E-04
 -2.3133999E-04
   16.66666       50.00000      2.4159097E-04   2.147105      1.3165080E-04
 -2.0256915E-04
   27.77778      -50.00000      2.3256816E-04   2.165232      1.3024776E-04
 -1.9267452E-04
   27.77778      -38.88889      2.5381119E-04   2.122616      1.3305734E-04
 -2.1613852E-04
   27.77778      -27.77778      2.7225944E-04   2.090402      1.3518715E-04
 -2.3632529E-04
   27.77778      -16.66667      2.9895466E-04   2.045397      1.3661729E-04
 -2.6591276E-04
   27.77778      -5.555557      3.2564448E-04   2.006148      1.3733367E-04
 -2.9526901E-04
   27.77778       5.555557      3.2564826E-04   2.006142      1.3733377E-04
 -2.9527314E-04
   27.77778       16.66666      2.9896179E-04   2.045386      1.3661757E-04
 -2.6592065E-04
   27.77778       27.77778      2.7226342E-04   2.090395      1.3518754E-04
 -2.3632964E-04
   27.77778       38.88889      2.5381675E-04   2.122605      1.3305784E-04
 -2.1614475E-04
   27.77778       50.00000      2.3257213E-04   2.165225      1.3024862E-04
 -1.9267872E-04
   38.88889      -50.00000      2.2345073E-04   2.181579      1.2815095E-04
 -1.8305071E-04
   38.88889      -38.88889      2.3673309E-04   2.156936      1.3094868E-04
 -1.9721815E-04
   38.88889      -27.77778      2.5381279E-04   2.122612      1.3305745E-04
 -2.1614034E-04
   38.88889      -16.66667      2.6758329E-04   2.097339      1.3447317E-04
 -2.3133912E-04
   38.88889      -5.555557      2.7226188E-04   2.090398      1.3518737E-04
 -2.3632798E-04
   38.88889       5.555557      2.7226264E-04   2.090397      1.3518745E-04
 -2.3632878E-04
   38.88889       16.66666      2.6758417E-04   2.097338      1.3447340E-04
 -2.3133997E-04
   38.88889       27.77778      2.5381678E-04   2.122604      1.3305782E-04
 -2.1614481E-04
   38.88889       38.88889      2.3673671E-04   2.156929      1.3094928E-04
 -1.9722211E-04
   38.88889       50.00000      2.2345310E-04   2.181576      1.2815170E-04
 -1.8305308E-04
   50.00000      -50.00000      2.1531097E-04   2.192380      1.2538054E-04
 -1.7503866E-04
   50.00000      -38.88889      2.2345132E-04   2.181578      1.2815118E-04
 -1.8305128E-04
   50.00000      -27.77778      2.3256989E-04   2.165229      1.3024811E-04
 -1.9267637E-04
   50.00000      -16.66667      2.4158921E-04   2.147109      1.3165052E-04
 -2.0256723E-04
   50.00000      -5.555557      2.4723937E-04   2.135690      1.3235361E-04
 -2.0882965E-04
   50.00000       5.555557      2.4724001E-04   2.135689      1.3235371E-04
 -2.0883034E-04
   50.00000       16.66666      2.4159094E-04   2.147105      1.3165078E-04
 -2.0256914E-04
   50.00000       27.77778      2.3257206E-04   2.165225      1.3024852E-04
 -1.9267871E-04
   50.00000       38.88889      2.2345314E-04   2.181576      1.2815172E-04
 -1.8305313E-04
   50.00000       50.00000      2.1531382E-04   2.192374      1.2538125E-04
 -1.7504166E-04
           1           2          12          11
           2           3          13          12
           3           4          14          13
           4           5          15          14
           5           6          16          15
           6           7          17          16
           7           8          18          17
           8           9          19          18
           9          10          20          19
          11          12          22          21
          12          13          23          22
          13          14          24          23
          14          15          25          24
          15          16          26          25
          16          17          27          26
          17          18          28          27
          18          19          29          28
          19          20          30          29
          21          22          32          31
          22          23          33          32
          23          24          34          33
          24          25          35          34
          25          26          36          35
          26          27          37          36
          27          28          38          37
          28          29          39          38
          29          30          40          39
          31          32          42          41
          32          33          43          42
          33          34          44          43
          34          35          45          44
          35          36          46          45
          36          37          47          46
          37          38          48          47
          38          39          49          48
          39          40          50          49
          41          42          52          51
          42          43          53          52
          43          44          54          53
          44          45          55          54
          45          46          56          55
          46          47          57          56
          47          48          58          57
          48          49          59          58
          49          50          60          59
          51          52          62          61
          52          53          63          62
          53          54          64          63
          54          55          65          64
          55          56          66          65
          56          57          67          66
          57          58          68          67
          58          59          69          68
          59          60          70          69
          61          62          72          71
          62          63          73          72
          63          64          74          73
          64          65          75          74
          65          66          76          75
          66          67          77          76
          67          68          78          77
          68          69          79          78
          69          70          80          79
          71          72          82          81
          72          73          83          82
          73          74          84          83
          74          75          85          84
          75          76          86          85
          76          77          87          86
          77          78          88          87
          78          79          89          88
          79          80          90          89
          81          82          92          91
          82          83          93          92
          83          84          94          93
          84          85          95          94
          85          86          96          95
          86          87          97          96
          87          88          98          97
          88          89          99          98
          89          90         100          99
