 VARIABLES="X" "Y" "abs(eta) (m)" "angle(phi) (rad)" "PRE1" "PRE2"
ZONE N=    100 ,E =      81 ,F=FEPOINT,ET=QUADRILATERAL
  -50.00000      -50.00000      2.3856029E-07   1.412259     -3.7662602E-08
 -2.3556855E-07
  -50.00000      -38.88889      3.7881009E-07   1.470646     -3.7874624E-08
 -3.7691191E-07
  -50.00000      -27.77778      1.0231169E-07   1.190447     -3.7982719E-08
 -9.4999969E-08
  -50.00000      -16.66667      4.9462489E-07   1.493724     -3.8084409E-08
 -4.9315651E-07
  -50.00000      -5.555557      7.3567338E-07   1.518916     -3.8149778E-08
 -7.3468357E-07
  -50.00000       5.555557      7.3664307E-07   1.518995     -3.8141838E-08
 -7.3565496E-07
  -50.00000       16.66666      4.9657388E-07   1.494035     -3.8080000E-08
 -4.9511164E-07
  -50.00000       27.77778      1.0255207E-07   1.191615     -3.7960639E-08
 -9.5267609E-08
  -50.00000       38.88889      3.8257573E-07   1.471653     -3.7867732E-08
 -3.8069703E-07
  -50.00000       50.00000      2.4165053E-07   1.414254     -3.7674223E-08
 -2.3869569E-07
  -38.88889      -50.00000      2.5317792E-07   1.400324     -4.2950973E-08
 -2.4950805E-07
  -38.88889      -38.88889      1.8047038E-07   1.329465     -4.3131578E-08
 -1.7524047E-07
  -38.88889      -27.77778      7.4048108E-07   1.512284     -4.3302894E-08
 -7.3921382E-07
  -38.88889      -16.66667      1.2964441E-06   1.537302     -4.3415252E-08
 -1.2957170E-06
  -38.88889      -5.555557      1.5356449E-06   1.542481     -4.3476991E-08
 -1.5350292E-06
  -38.88889       5.555557      1.5381877E-06   1.542535     -4.3464983E-08
 -1.5375734E-06
  -38.88889       16.66666      1.3039215E-06   1.537495     -4.3414015E-08
 -1.3031986E-06
  -38.88889       27.77778      7.4760624E-07   1.512845     -4.3300410E-08
 -7.4635125E-07
  -38.88889       38.88889      1.8274194E-07   1.332526     -4.3131109E-08
 -1.7757907E-07
  -38.88889       50.00000      2.5799534E-07   1.403521     -4.2955339E-08
 -2.5439425E-07
  -27.77778      -50.00000      5.8824227E-08 -0.6110416     -4.8180034E-08
  3.3748687E-08
  -27.77778      -38.88889      4.6944322E-07   1.467467     -4.8420922E-08
 -4.6693935E-07
  -27.77778      -27.77778      1.0263396E-06   1.523440     -4.8585893E-08
 -1.0251890E-06
  -27.77778      -16.66667      1.6942466E-06   1.542060     -4.8680484E-08
 -1.6935471E-06
  -27.77778      -5.555557      3.8362609E-06   1.558089     -4.8747662E-08
 -3.8359512E-06
  -27.77778       5.555557      3.8465359E-06   1.558123     -4.8747008E-08
 -3.8462272E-06
  -27.77778       16.66666      1.7091539E-06   1.542305     -4.8690033E-08
 -1.7084602E-06
  -27.77778       27.77778      1.0398337E-06   1.524056     -4.8584518E-08
 -1.0386981E-06
  -27.77778       38.88889      4.7930706E-07   1.469626     -4.8409031E-08
 -4.7685620E-07
  -27.77778       50.00000      5.8611565E-08 -0.6057748     -4.8182294E-08
  3.3373375E-08
  -16.66667      -50.00000      6.1187450E-08  0.5098015     -5.3406936E-08
 -2.9859720E-08
  -16.66667      -38.88889      4.2708635E-07   1.444842     -5.3651284E-08
 -4.2370306E-07
  -16.66667      -27.77778      9.1467206E-07   1.511929     -5.3812940E-08
 -9.1308772E-07
  -16.66667      -16.66667      5.0311894E-07  -1.463403     -5.3927629E-08
  5.0022044E-07
  -16.66667      -5.555557      1.2727907E-05   1.566554     -5.3995052E-08
 -1.2727793E-05
  -16.66667       5.555557      1.2773124E-05   1.566569     -5.3992409E-08
 -1.2773010E-05
  -16.66667       16.66666      4.7143624E-07  -1.456150     -5.3929913E-08
  4.6834143E-07
  -16.66667       27.77778      9.3926297E-07   1.513463     -5.3821530E-08
 -9.3771968E-07
  -16.66667       38.88889      4.4428299E-07   1.449754     -5.3645685E-08
 -4.4103234E-07
  -16.66667       50.00000      6.4197117E-08  0.5882853     -5.3405159E-08
 -3.5625249E-08
  -5.555557      -50.00000      1.1721183E-07  -1.047617     -5.8563316E-08
  1.0153300E-07
  -5.555557      -38.88889      6.0384529E-08  0.2284342     -5.8815871E-08
 -1.3674239E-08
  -5.555557      -27.77778      5.3865432E-07   1.461040     -5.9001959E-08
 -5.3541316E-07
  -5.555557      -16.66667      3.9471201E-06   1.555816     -5.9125732E-08
 -3.9466772E-06
  -5.555557      -5.555557      5.3747557E-05   1.569695     -5.9166627E-08
 -5.3747524E-05
  -5.555557       5.555557      5.3959237E-05   1.569700     -5.9181549E-08
 -5.3959204E-05
  -5.555557       16.66666      4.0786072E-06   1.556299     -5.9125906E-08
 -4.0781788E-06
  -5.555557       27.77778      5.8847894E-07   1.470386     -5.8990139E-08
 -5.8551484E-07
  -5.555557       38.88889      6.8672577E-08  0.5426209     -5.8808329E-08
 -3.5461298E-08
  -5.555557       50.00000      1.0957000E-07  -1.006892     -5.8564076E-08
  9.2605802E-08
   5.555557      -50.00000      3.1604401E-07  -1.367929     -6.3676019E-08
  3.0956289E-07
   5.555557      -38.88889      4.9417542E-07  -1.441064     -6.3930649E-08
  4.9002267E-07
   5.555557      -27.77778      1.1069322E-06  -1.512836     -6.4122560E-08
  1.1050735E-06
   5.555557      -16.66667      4.7927151E-06  -1.557390     -6.4248958E-08
  4.7922845E-06
   5.555557      -5.555557      5.5327739E-05  -1.569634     -6.4313902E-08
  5.5327702E-05
   5.555557       5.555557      5.5240558E-05  -1.569632     -6.4322130E-08
  5.5240522E-05
   5.555557       16.66666      4.6658261E-06  -1.557026     -6.4247786E-08
  4.6653836E-06
   5.555557       27.77778      1.0574174E-06  -1.510116     -6.4124578E-08
  1.0554713E-06
   5.555557       38.88889      4.7139295E-07  -1.434722     -6.3946587E-08
  4.6703548E-07
   5.555557       50.00000      3.0736877E-07  -1.362149     -6.3667372E-08
  3.0070254E-07
   16.66666      -50.00000      4.3693998E-07  -1.412867     -6.8719189E-08
  4.3150229E-07
   16.66666      -38.88889      8.7975678E-07  -1.492296     -6.8990055E-08
  8.7704751E-07
   16.66666      -27.77778      1.4158343E-06  -1.521918     -6.9176238E-08
  1.4141433E-06
   16.66666      -16.66667      1.3517909E-07  -1.032263     -6.9330355E-08
  1.1604607E-07
   16.66666      -5.555557      1.3493943E-05  -1.565654     -6.9394446E-08
  1.3493765E-05
   16.66666       5.555557      1.3453076E-05  -1.565639     -6.9381095E-08
  1.3452897E-05
   16.66666       16.66666      1.1342657E-07 -0.9132648     -6.9322340E-08
  8.9777508E-08
   16.66666       27.77778      1.3923695E-06  -1.521088     -6.9183393E-08
  1.3906497E-06
   16.66666       38.88889      8.6259115E-07  -1.490744     -6.8978359E-08
  8.5982873E-07
   16.66666       50.00000      4.3144982E-07  -1.410837     -6.8720567E-08
  4.2594181E-07
   27.77778      -50.00000      3.6311661E-07  -1.366449     -7.3686579E-08
  3.5556147E-07
   27.77778      -38.88889      8.9067640E-07  -1.487671     -7.3952762E-08
  8.8760095E-07
   27.77778      -27.77778      1.4942906E-06  -1.521145     -7.4163673E-08
  1.4924490E-06
   27.77778      -16.66667      2.1868939E-06  -1.536812     -7.4306577E-08
  2.1856310E-06
   27.77778      -5.555557      4.3678156E-06  -1.553768     -7.4371506E-08
  4.3671826E-06
   27.77778       5.555557      4.3582413E-06  -1.553730     -7.4376331E-08
  4.3576065E-06
   27.77778       16.66666      2.1729923E-06  -1.536597     -7.4300637E-08
  2.1717217E-06
   27.77778       27.77778      1.4757666E-06  -1.520521     -7.4163061E-08
  1.4739019E-06
   27.77778       38.88889      8.8100199E-07  -1.486756     -7.3952627E-08
  8.7789266E-07
   27.77778       50.00000      3.6281284E-07  -1.366272     -7.3687957E-08
  3.5525096E-07
   38.88889      -50.00000      6.4315873E-07  -1.448390     -7.8530185E-08
  6.3834642E-07
   38.88889      -38.88889      5.7458163E-07  -1.433114     -7.8860140E-08
  5.6914422E-07
   38.88889      -27.77778      1.1598470E-06  -1.502572     -7.9068947E-08
  1.1571487E-06
   38.88889      -16.66667      1.7412685E-06  -1.525297     -7.9198465E-08
  1.7394665E-06
   38.88889      -5.555557      1.9884917E-06  -1.530925     -7.9263600E-08
  1.9869112E-06
   38.88889       5.555557      1.9845140E-06  -1.530841     -7.9271778E-08
  1.9829301E-06
   38.88889       16.66666      1.7339926E-06  -1.525105     -7.9201698E-08
  1.7321828E-06
   38.88889       27.77778      1.1529830E-06  -1.502174     -7.9058587E-08
  1.1502693E-06
   38.88889       38.88889      5.7253931E-07  -1.432638     -7.8849510E-08
  5.6708376E-07
   38.88889       50.00000      6.3845584E-07  -1.447495     -7.8522980E-08
  6.3360869E-07
   50.00000      -50.00000      6.1360066E-07  -1.434560     -8.3336076E-08
  6.0791518E-07
   50.00000      -38.88889      7.6922100E-07  -1.461874     -8.3619817E-08
  7.6466245E-07
   50.00000      -27.77778      4.9145297E-07  -1.399277     -8.3881062E-08
  4.8424164E-07
   50.00000      -16.66667      8.9513941E-07  -1.476772     -8.4041268E-08
  8.9118549E-07
   50.00000      -5.555557      1.1412767E-06  -1.497046     -8.4092967E-08
  1.1381744E-06
   50.00000       5.555557      1.1402623E-06  -1.496970     -8.4105224E-08
  1.1371562E-06
   50.00000       16.66666      8.9334873E-07  -1.476610     -8.4016882E-08
  8.8938918E-07
   50.00000       27.77778      4.9134906E-07  -1.399217     -8.3892537E-08
  4.8413420E-07
   50.00000       38.88889      7.6555523E-07  -1.461370     -8.3604441E-08
  7.6097643E-07
   50.00000       50.00000      6.1054476E-07  -1.433888     -8.3327585E-08
  6.0483171E-07
           1           2          12          11
           2           3          13          12
           3           4          14          13
           4           5          15          14
           5           6          16          15
           6           7          17          16
           7           8          18          17
           8           9          19          18
           9          10          20          19
          11          12          22          21
          12          13          23          22
          13          14          24          23
          14          15          25          24
          15          16          26          25
          16          17          27          26
          17          18          28          27
          18          19          29          28
          19          20          30          29
          21          22          32          31
          22          23          33          32
          23          24          34          33
          24          25          35          34
          25          26          36          35
          26          27          37          36
          27          28          38          37
          28          29          39          38
          29          30          40          39
          31          32          42          41
          32          33          43          42
          33          34          44          43
          34          35          45          44
          35          36          46          45
          36          37          47          46
          37          38          48          47
          38          39          49          48
          39          40          50          49
          41          42          52          51
          42          43          53          52
          43          44          54          53
          44          45          55          54
          45          46          56          55
          46          47          57          56
          47          48          58          57
          48          49          59          58
          49          50          60          59
          51          52          62          61
          52          53          63          62
          53          54          64          63
          54          55          65          64
          55          56          66          65
          56          57          67          66
          57          58          68          67
          58          59          69          68
          59          60          70          69
          61          62          72          71
          62          63          73          72
          63          64          74          73
          64          65          75          74
          65          66          76          75
          66          67          77          76
          67          68          78          77
          68          69          79          78
          69          70          80          79
          71          72          82          81
          72          73          83          82
          73          74          84          83
          74          75          85          84
          75          76          86          85
          76          77          87          86
          77          78          88          87
          78          79          89          88
          79          80          90          89
          81          82          92          91
          82          83          93          92
          83          84          94          93
          84          85          95          94
          85          86          96          95
          86          87          97          96
          87          88          98          97
          88          89          99          98
          89          90         100          99
