 VARIABLES="X" "Y" "abs(eta) (m)" "angle(phi) (rad)" "PRE1" "PRE2"
ZONE N=    100 ,E =      81 ,F=FEPOINT,ET=QUADRILATERAL
  -50.00000      -50.00000      2.0314837E-05  -2.735569      1.8663215E-05
  8.0235295E-06
  -50.00000      -38.88889      2.3772052E-05  -2.978107      2.3455075E-05
  3.8690960E-06
  -50.00000      -27.77778      2.6736034E-05   3.089388      2.6699608E-05
 -1.3951219E-06
  -50.00000      -16.66667      3.0643521E-05   2.952914      3.0099691E-05
 -5.7475208E-06
  -50.00000      -5.555557      3.2376884E-05   2.862885      3.1127518E-05
 -8.9073155E-06
  -50.00000       5.555557      3.2378357E-05   2.862798      3.1128162E-05
 -8.9104187E-06
  -50.00000       16.66666      3.0646519E-05   2.952694      3.0101372E-05
 -5.7547072E-06
  -50.00000       27.77778      2.6739326E-05   3.089039      2.6702410E-05
 -1.4045991E-06
  -50.00000       38.88889      2.3775830E-05  -2.978419      2.3460008E-05
  3.8623948E-06
  -50.00000       50.00000      2.0315707E-05  -2.735901      1.8666671E-05
  8.0176906E-06
  -38.88889      -50.00000      1.8453778E-05  -2.984483      1.8226496E-05
  2.8873560E-06
  -38.88889      -38.88889      2.1869249E-05   3.007463      2.1672822E-05
 -2.9245271E-06
  -38.88889      -27.77778      2.6885011E-05   2.765741      2.5008309E-05
 -9.8685505E-06
  -38.88889      -16.66667      3.2491767E-05   2.595379      2.7764130E-05
 -1.6878032E-05
  -38.88889      -5.555557      3.6392285E-05   2.476299      2.8631093E-05
 -2.2464616E-05
  -38.88889       5.555557      3.6398200E-05   2.476126      2.8631875E-05
 -2.2473199E-05
  -38.88889       16.66666      3.2502383E-05   2.594956      2.7766058E-05
 -1.6895294E-05
  -38.88889       27.77778      2.6895463E-05   2.765102      2.5011723E-05
 -9.8883565E-06
  -38.88889       38.88889      2.1875347E-05   3.006786      2.1676879E-05
 -2.9400237E-06
  -38.88889       50.00000      1.8458519E-05  -2.984972      1.8232589E-05
  2.8791708E-06
  -27.77778      -50.00000      1.4745267E-05   3.072243      1.4709823E-05
 -1.0217651E-06
  -27.77778      -38.88889      1.9093748E-05   2.755845      1.7690692E-05
 -7.1840541E-06
  -27.77778      -27.77778      2.5840869E-05   2.467880      2.0194915E-05
 -1.6121909E-05
  -27.77778      -16.66667      3.5268302E-05   2.250194      2.2159938E-05
 -2.7437023E-05
  -27.77778      -5.555557      4.6636527E-05   2.080786      2.2766482E-05
 -4.0702002E-05
  -27.77778       5.555557      4.6663394E-05   2.080486      2.2767366E-05
 -4.0732288E-05
  -27.77778       16.66666      3.5306326E-05   2.249398      2.2161945E-05
 -2.7484264E-05
  -27.77778       27.77778      2.5869374E-05   2.466704      2.0198195E-05
 -1.6163460E-05
  -27.77778       38.88889      1.9107758E-05   2.754613      1.7694798E-05
 -7.2111397E-06
  -27.77778       50.00000      1.4750760E-05   3.071157      1.4714185E-05
 -1.0381127E-06
  -16.66667      -50.00000      1.0006168E-05   2.912536      9.7448165E-06
 -2.2719908E-06
  -16.66667      -38.88889      1.3654787E-05   2.564795      1.1445629E-05
 -7.4465293E-06
  -16.66667      -27.77778      2.0900767E-05   2.233040      1.2851619E-05
 -1.6482656E-05
  -16.66667      -16.66667      3.5839887E-05   1.969461      1.3912628E-05
 -3.3029322E-05
  -16.66667      -5.555557      7.8225727E-05   1.754355      1.4278515E-05
 -7.6911565E-05
  -16.66667       5.555557      7.8343466E-05   1.754088      1.4279440E-05
 -7.7031138E-05
  -16.66667       16.66666      3.5968427E-05   1.968012      1.3914463E-05
 -3.3167988E-05
  -16.66667       27.77778      2.0963053E-05   2.230919      1.2854834E-05
 -1.6559072E-05
  -16.66667       38.88889      1.3679252E-05   2.562632      1.1449966E-05
 -7.4846653E-06
  -16.66667       50.00000      1.0015225E-05   2.910720      9.7494913E-06
 -2.2917570E-06
  -5.555557      -50.00000      3.3296196E-06   2.692787      2.9998735E-06
 -1.4446890E-06
  -5.555557      -38.88889      4.7991293E-06   2.335979      3.3242054E-06
 -3.4614018E-06
  -5.555557      -27.77778      8.7731569E-06   1.990273      3.5731578E-06
 -8.0125419E-06
  -5.555557      -16.66667      2.5192479E-05   1.721352      3.7785455E-06
 -2.4907502E-05
  -5.555557      -5.555557      2.3735361E-04   1.587310      3.9194720E-06
 -2.3732125E-04
  -5.555557       5.555557      2.3792284E-04   1.587274      3.9201341E-06
 -2.3789055E-04
  -5.555557       16.66666      2.5596886E-05   1.719055      3.7810710E-06
 -2.5316083E-05
  -5.555557       27.77778      8.9063196E-06   1.984000      3.5762960E-06
 -8.1567541E-06
  -5.555557       38.88889      4.8422389E-06   2.328692      3.3285282E-06
 -3.5168423E-06
  -5.555557       50.00000      3.3446006E-06   2.686515      3.0042102E-06
 -1.4700594E-06
   5.555557      -50.00000      4.0531418E-06 -0.1033733     -4.0315049E-06
  4.1824069E-07
   5.555557      -38.88889      5.8593696E-06 -0.5109462     -5.1110237E-06
  2.8652485E-06
   5.555557      -27.77778      1.0258407E-05 -0.9433073     -6.0228540E-06
  8.3042250E-06
   5.555557      -16.66667      2.7760783E-05  -1.326281     -6.7204924E-06
  2.6935035E-05
   5.555557      -5.555557      2.4272695E-04  -1.541453     -7.1213144E-06
  2.4262247E-04
   5.555557       5.555557      2.4250739E-04  -1.541429     -7.1207915E-06
  2.4240282E-04
   5.555557       16.66666      2.7316864E-05  -1.322305     -6.7183610E-06
  2.6477815E-05
   5.555557       27.77778      1.0142992E-05 -0.9354204     -6.0196644E-06
  8.1635735E-06
   5.555557       38.88889      5.8295218E-06 -0.5032259     -5.1068441E-06
  2.8113107E-06
   5.555557       50.00000      4.0466816E-06 -9.7425170E-02 -4.0274917E-06
  3.9362524E-07
   16.66666      -50.00000      1.0676190E-05 -0.1124111     -1.0608807E-05
  1.1975966E-06
   16.66666      -38.88889      1.4645625E-05 -0.4740607     -1.3030533E-05
  6.6857706E-06
   16.66666      -27.77778      2.2229011E-05 -0.8257290     -1.5071743E-05
  1.6339261E-05
   16.66666      -16.66667      3.7622987E-05  -1.113703     -1.6604579E-05
  3.3760585E-05
   16.66666      -5.555557      8.0430611E-05  -1.355027     -1.7220091E-05
  7.8565587E-05
   16.66666       5.555557      8.0271915E-05  -1.354606     -1.7219170E-05
  7.8403318E-05
   16.66666       16.66666      3.7516533E-05  -1.112373     -1.6602353E-05
  3.3643009E-05
   16.66666       27.77778      2.2176037E-05 -0.8237152     -1.5068620E-05
  1.6270013E-05
   16.66666       38.88889      1.4626510E-05 -0.4720702     -1.3026792E-05
  6.6511275E-06
   16.66666       50.00000      1.0670217E-05 -0.1107949     -1.0604793E-05
  1.1797883E-06
   27.77778      -50.00000      1.5263196E-05  6.2941690E-03 -1.5262895E-05
 -9.6068504E-08
   27.77778      -38.88889      1.9894445E-05 -0.3180368     -1.8896762E-05
  6.2210411E-06
   27.77778      -27.77778      2.6903423E-05 -0.6145733     -2.1980622E-05
  1.5512782E-05
   27.77778      -16.66667      3.6577421E-05 -0.8412872     -2.4378989E-05
  2.7268527E-05
   27.77778      -5.555557      4.8038157E-05  -1.018218     -2.5214427E-05
  4.0888837E-05
   27.77778       5.555557      4.8014852E-05  -1.017944     -2.5213416E-05
  4.0862080E-05
   27.77778       16.66666      3.6546426E-05 -0.8405900     -2.4377321E-05
  2.7228432E-05
   27.77778       27.77778      2.6880149E-05 -0.6135127     -2.1978034E-05
  1.5476060E-05
   27.77778       38.88889      1.9884303E-05 -0.3169580     -1.8893825E-05
  6.1974902E-06
   27.77778       50.00000      1.5260317E-05  7.2208638E-03 -1.5259919E-05
 -1.1019171E-07
   38.88889      -50.00000      1.8798839E-05  0.2138543     -1.8370605E-05
 -3.9896386E-06
   38.88889      -38.88889      2.2449285E-05 -8.1205659E-02 -2.2375307E-05
  1.8210061E-06
   38.88889      -27.77778      2.7683436E-05 -0.3272810     -2.6213997E-05
  8.8993820E-06
   38.88889      -16.66667      3.3473578E-05 -0.5017610     -2.9347520E-05
  1.6099793E-05
   38.88889      -5.555557      3.7436381E-05 -0.6224559     -3.0415151E-05
  2.1826616E-05
   38.88889       5.555557      3.7431859E-05 -0.6223085     -3.0414696E-05
  2.1819496E-05
   38.88889       16.66666      3.3465483E-05 -0.5014170     -2.9345960E-05
  1.6085805E-05
   38.88889       27.77778      2.7676460E-05 -0.3267376     -2.6212223E-05
  8.8828965E-06
   38.88889       38.88889      2.2446720E-05 -8.0635220E-02 -2.2373784E-05
  1.8080353E-06
   38.88889       50.00000      1.8799310E-05  0.2142694     -1.8369408E-05
 -3.9973652E-06
   50.00000      -50.00000      2.0445608E-05  0.4556898     -1.8359291E-05
 -8.9977402E-06
   50.00000      -38.88889      2.4117813E-05  0.2076883     -2.3599527E-05
 -4.9730561E-06
   50.00000      -27.77778      2.7253252E-05 -9.9771451E-03 -2.7251896E-05
  2.7190515E-07
   50.00000      -16.66667      3.1310894E-05 -0.1494934     -3.0961673E-05
  4.6633568E-06
   50.00000      -5.555557      3.3103766E-05 -0.2397870     -3.2156622E-05
  7.8620042E-06
   50.00000       5.555557      3.3102973E-05 -0.2397186     -3.2156389E-05
  7.8596158E-06
   50.00000       16.66666      3.1309137E-05 -0.1493320     -3.0960688E-05
  4.6580976E-06
   50.00000       27.77778      2.7251774E-05 -9.7130015E-03 -2.7250488E-05
  2.6469235E-07
   50.00000       38.88889      2.4118108E-05  0.2079232     -2.3598646E-05
 -4.9786590E-06
   50.00000       50.00000      2.0445812E-05  0.4558952     -1.8357625E-05
 -9.0016001E-06
           1           2          12          11
           2           3          13          12
           3           4          14          13
           4           5          15          14
           5           6          16          15
           6           7          17          16
           7           8          18          17
           8           9          19          18
           9          10          20          19
          11          12          22          21
          12          13          23          22
          13          14          24          23
          14          15          25          24
          15          16          26          25
          16          17          27          26
          17          18          28          27
          18          19          29          28
          19          20          30          29
          21          22          32          31
          22          23          33          32
          23          24          34          33
          24          25          35          34
          25          26          36          35
          26          27          37          36
          27          28          38          37
          28          29          39          38
          29          30          40          39
          31          32          42          41
          32          33          43          42
          33          34          44          43
          34          35          45          44
          35          36          46          45
          36          37          47          46
          37          38          48          47
          38          39          49          48
          39          40          50          49
          41          42          52          51
          42          43          53          52
          43          44          54          53
          44          45          55          54
          45          46          56          55
          46          47          57          56
          47          48          58          57
          48          49          59          58
          49          50          60          59
          51          52          62          61
          52          53          63          62
          53          54          64          63
          54          55          65          64
          55          56          66          65
          56          57          67          66
          57          58          68          67
          58          59          69          68
          59          60          70          69
          61          62          72          71
          62          63          73          72
          63          64          74          73
          64          65          75          74
          65          66          76          75
          66          67          77          76
          67          68          78          77
          68          69          79          78
          69          70          80          79
          71          72          82          81
          72          73          83          82
          73          74          84          83
          74          75          85          84
          75          76          86          85
          76          77          87          86
          77          78          88          87
          78          79          89          88
          79          80          90          89
          81          82          92          91
          82          83          93          92
          83          84          94          93
          84          85          95          94
          85          86          96          95
          86          87          97          96
          87          88          98          97
          88          89          99          98
          89          90         100          99
