 VARIABLES="X" "Y" "abs(eta) (m)" "angle(phi) (rad)" "PRE1" "PRE2"
ZONE N=    100 ,E =      81 ,F=FEPOINT,ET=QUADRILATERAL
  -50.00000      -50.00000      5.7054244E-08   1.624586      3.0674494E-09
 -5.6971725E-08
  -50.00000      -38.88889      5.9747968E-08   1.611597      2.4370539E-09
 -5.9698245E-08
  -50.00000      -27.77778      2.4719936E-08   1.643994      1.8078369E-09
 -2.4653742E-08
  -50.00000      -16.66667      3.3496427E-08   1.605781      1.1716358E-09
 -3.3475931E-08
  -50.00000      -5.555557      1.8075916E-08   1.600402      5.3508109E-10
 -1.8067995E-08
  -50.00000       5.555557      7.5031217E-09  -1.557088     -1.0285377E-10
  7.5024165E-09
  -50.00000       16.66666      2.3305574E-08  -1.539074     -7.3918011E-10
  2.3293849E-08
  -50.00000       27.77778      1.5246954E-08  -1.480087     -1.3811390E-09
  1.5184270E-08
  -50.00000       38.88889      4.9661132E-08  -1.530253     -2.0128679E-09
  4.9620322E-08
  -50.00000       50.00000      4.7125106E-08  -1.514691     -2.6425999E-09
  4.7050953E-08
  -38.88889      -50.00000      7.5301003E-08   1.611615      3.0728291E-09
 -7.5238283E-08
  -38.88889      -38.88889      5.0804971E-08   1.618967      2.4463678E-09
 -5.0746038E-08
  -38.88889      -27.77778      8.8496918E-08   1.591273      1.8119924E-09
 -8.8478366E-08
  -38.88889      -16.66667      8.5498172E-08   1.584534      1.1744752E-09
 -8.5490107E-08
  -38.88889      -5.555557      3.6754567E-08   1.585421      5.3750071E-10
 -3.6750638E-08
  -38.88889       5.555557      2.4758316E-08  -1.566600     -1.0390412E-10
  2.4758098E-08
  -38.88889       16.66666      7.4071806E-08  -1.560726     -7.4592460E-10
  7.4068048E-08
  -38.88889       27.77778      7.7869572E-08  -1.553054     -1.3815307E-09
  7.7857315E-08
  -38.88889       38.88889      4.1082295E-08  -1.521670     -2.0174118E-09
  4.1032731E-08
  -38.88889       50.00000      6.5381336E-08  -1.530313     -2.6461062E-09
  6.5327768E-08
  -27.77778      -50.00000      4.0686803E-08   1.646719      3.0860794E-09
 -4.0569596E-08
  -27.77778      -38.88889      1.2157065E-07   1.590956      2.4507001E-09
 -1.2154595E-07
  -27.77778      -27.77778      1.5939874E-07   1.582181      1.8146700E-09
 -1.5938841E-07
  -27.77778      -16.66667      1.4845044E-07   1.578709      1.1746240E-09
 -1.4844579E-07
  -27.77778      -5.555557      1.0839862E-07   1.575770      5.3914673E-10
 -1.0839727E-07
  -27.77778       5.555557      9.3268348E-08  -1.569693     -1.0291382E-10
  9.3268291E-08
  -27.77778       16.66666      1.3648564E-07  -1.565330     -7.4611156E-10
  1.3648359E-07
  -27.77778       27.77778      1.4798643E-07  -1.561473     -1.3796299E-09
  1.4797999E-07
  -27.77778       38.88889      1.1134419E-07  -1.552656     -2.0196926E-09
  1.1132587E-07
  -27.77778       50.00000      3.1276862E-08  -1.485645     -2.6600373E-09
  3.1163541E-08
  -16.66667      -50.00000      9.0029829E-08   1.605068      3.0848322E-09
 -8.9976965E-08
  -16.66667      -38.88889      1.9121833E-07   1.583630      2.4538924E-09
 -1.9120259E-07
  -16.66667      -27.77778      2.4276494E-07   1.578291      1.8193940E-09
 -2.4275812E-07
  -16.66667      -16.66667      2.7782489E-08  -1.613216      1.1781800E-09
  2.7757496E-08
  -16.66667      -5.555557      5.5328769E-07   1.571766      5.3658394E-10
 -5.5328741E-07
  -16.66667       5.555557      5.2928789E-07  -1.570603     -1.0238697E-10
  5.2928789E-07
  -16.66667       16.66666      3.8841044E-08   1.551550     -7.4749029E-10
 -3.8833850E-08
  -16.66667       27.77778      2.3219572E-07  -1.564828     -1.3858357E-09
  2.3219158E-07
  -16.66667       38.88889      1.8114933E-07  -1.559625     -2.0236324E-09
  1.8113803E-07
  -16.66667       50.00000      8.0393541E-08  -1.537714     -2.6591307E-09
  8.0349551E-08
  -5.555557      -50.00000      1.1984967E-07   1.596561      3.0875884E-09
 -1.1980990E-07
  -5.555557      -38.88889      2.1993685E-07   1.581964      2.4560252E-09
 -2.1992314E-07
  -5.555557      -27.77778      5.0895528E-07   1.574368      1.8179070E-09
 -5.0895204E-07
  -5.555557      -16.66667      1.6298304E-06   1.571519      1.1782295E-09
 -1.6298300E-06
  -5.555557      -5.555557      6.8323716E-06   1.570875      5.3720667E-10
 -6.8323716E-06
  -5.555557       5.555557      6.8141526E-06  -1.570781     -1.0432574E-10
  6.8141526E-06
  -5.555557       16.66666      1.6184185E-06  -1.570338     -7.4192347E-10
  1.6184184E-06
  -5.555557       27.77778      4.9945254E-07  -1.568023     -1.3849097E-09
  4.9945061E-07
  -5.555557       38.88889      2.0994854E-07  -1.561159     -2.0232545E-09
  2.0993879E-07
  -5.555557       50.00000      1.1037076E-07  -1.546739     -2.6549429E-09
  1.1033882E-07
   5.555557      -50.00000      1.1972550E-07   1.596591      3.0879641E-09
 -1.1968567E-07
   5.555557      -38.88889      2.1946330E-07   1.581989      2.4563098E-09
 -2.1944956E-07
   5.555557      -27.77778      5.0764879E-07   1.574376      1.8172923E-09
 -5.0764555E-07
   5.555557      -16.66667      1.6242055E-06   1.571522      1.1783290E-09
 -1.6242051E-06
   5.555557      -5.555557      6.8186041E-06   1.570875      5.3800286E-10
 -6.8186041E-06
   5.555557       5.555557      6.8435788E-06  -1.570781     -1.0243761E-10
  6.8435788E-06
   5.555557       16.66666      1.6246205E-06  -1.570337     -7.4568146E-10
  1.6246203E-06
   5.555557       27.77778      5.0085578E-07  -1.568030     -1.3857490E-09
  5.0085384E-07
   5.555557       38.88889      2.1031940E-07  -1.561167     -2.0252793E-09
  2.1030965E-07
   5.555557       50.00000      1.1050994E-07  -1.546744     -2.6577212E-09
  1.1047798E-07
   16.66666      -50.00000      8.9791271E-08   1.605189      3.0875642E-09
 -8.9738172E-08
   16.66666      -38.88889      1.9022210E-07   1.583689      2.4523901E-09
 -1.9020629E-07
   16.66666      -27.77778      2.4087140E-07   1.578345      1.8181514E-09
 -2.4086455E-07
   16.66666      -16.66667      3.1306957E-08  -1.608518      1.1806602E-09
  3.1284685E-08
   16.66666      -5.555557      5.3585660E-07   1.571800      5.3771726E-10
 -5.3585632E-07
   16.66666       5.555557      5.4729583E-07  -1.570608     -1.0298976E-10
  5.4729583E-07
   16.66666       16.66666      3.4584652E-08   1.549244     -7.4530920E-10
 -3.4576619E-08
   16.66666       27.77778      2.3423148E-07  -1.564885     -1.3845652E-09
  2.3422739E-07
   16.66666       38.88889      1.8217980E-07  -1.559694     -2.0225566E-09
  1.8216858E-07
   16.66666       50.00000      8.0668258E-08  -1.537847     -2.6574736E-09
  8.0624474E-08
   27.77778      -50.00000      4.0672187E-08   1.646801      3.0883078E-09
 -4.0554767E-08
   27.77778      -38.88889      1.2062550E-07   1.591104      2.4494216E-09
 -1.2060063E-07
   27.77778      -27.77778      1.5686005E-07   1.582377      1.8164664E-09
 -1.5684954E-07
   27.77778      -16.66667      1.4525290E-07   1.578898      1.1767867E-09
 -1.4524814E-07
   27.77778      -5.555557      1.0162428E-07   1.576048      5.3364690E-10
 -1.0162288E-07
   27.77778       5.555557      1.0011625E-07  -1.569756     -1.0418848E-10
  1.0011619E-07
   27.77778       16.66666      1.3983728E-07  -1.565459     -7.4628287E-10
  1.3983529E-07
   27.77778       27.77778      1.4980778E-07  -1.561559     -1.3838017E-09
  1.4980138E-07
   27.77778       38.88889      1.1231166E-07  -1.552820     -2.0188440E-09
  1.1229351E-07
   27.77778       50.00000      3.1304211E-08  -1.485767     -2.6585598E-09
  3.1191114E-08
   38.88889      -50.00000      7.4805946E-08   1.611886      3.0729022E-09
 -7.4742807E-08
   38.88889      -38.88889      5.0511726E-08   1.619261      2.4470741E-09
 -5.0452417E-08
   38.88889      -27.77778      8.7160913E-08   1.591559      1.8095477E-09
 -8.7142126E-08
   38.88889      -16.66667      8.3165666E-08   1.584921      1.1746377E-09
 -8.3157367E-08
   38.88889      -5.555557      3.3578871E-08   1.586688      5.3360738E-10
 -3.3574633E-08
   38.88889       5.555557      2.7707037E-08  -1.567079     -1.0300003E-10
  2.7706845E-08
   38.88889       16.66666      7.6435214E-08  -1.561094     -7.4161288E-10
  7.6431618E-08
   38.88889       27.77778      7.9225771E-08  -1.553351     -1.3820133E-09
  7.9213713E-08
   38.88889       38.88889      4.1404132E-08  -1.521980     -2.0204001E-09
  4.1354806E-08
   38.88889       50.00000      6.5884230E-08  -1.530583     -2.6487259E-09
  6.5830967E-08
   50.00000      -50.00000      5.6633599E-08   1.624970      3.0665519E-09
 -5.6550515E-08
   50.00000      -38.88889      5.9092937E-08   1.612064      2.4379545E-09
 -5.9042623E-08
   50.00000      -27.77778      2.4683409E-08   1.644148      1.8089493E-09
 -2.4617034E-08
   50.00000      -16.66667      3.2720695E-08   1.606624      1.1720507E-09
 -3.2699699E-08
   50.00000      -5.555557      1.6861422E-08   1.602489      5.3429561E-10
 -1.6852955E-08
   50.00000       5.555557      8.7104217E-09  -1.558846     -1.0408707E-10
  8.7098000E-09
   50.00000       16.66666      2.4089463E-08  -1.540054     -7.4044987E-10
  2.4078080E-08
   50.00000       27.77778      1.5314434E-08  -1.480448     -1.3817539E-09
  1.5251972E-08
   50.00000       38.88889      5.0326580E-08  -1.530786     -2.0130630E-09
  5.0286303E-08
   50.00000       50.00000      4.7555073E-08  -1.515190     -2.6430227E-09
  4.7481567E-08
           1           2          12          11
           2           3          13          12
           3           4          14          13
           4           5          15          14
           5           6          16          15
           6           7          17          16
           7           8          18          17
           8           9          19          18
           9          10          20          19
          11          12          22          21
          12          13          23          22
          13          14          24          23
          14          15          25          24
          15          16          26          25
          16          17          27          26
          17          18          28          27
          18          19          29          28
          19          20          30          29
          21          22          32          31
          22          23          33          32
          23          24          34          33
          24          25          35          34
          25          26          36          35
          26          27          37          36
          27          28          38          37
          28          29          39          38
          29          30          40          39
          31          32          42          41
          32          33          43          42
          33          34          44          43
          34          35          45          44
          35          36          46          45
          36          37          47          46
          37          38          48          47
          38          39          49          48
          39          40          50          49
          41          42          52          51
          42          43          53          52
          43          44          54          53
          44          45          55          54
          45          46          56          55
          46          47          57          56
          47          48          58          57
          48          49          59          58
          49          50          60          59
          51          52          62          61
          52          53          63          62
          53          54          64          63
          54          55          65          64
          55          56          66          65
          56          57          67          66
          57          58          68          67
          58          59          69          68
          59          60          70          69
          61          62          72          71
          62          63          73          72
          63          64          74          73
          64          65          75          74
          65          66          76          75
          66          67          77          76
          67          68          78          77
          68          69          79          78
          69          70          80          79
          71          72          82          81
          72          73          83          82
          73          74          84          83
          74          75          85          84
          75          76          86          85
          76          77          87          86
          77          78          88          87
          78          79          89          88
          79          80          90          89
          81          82          92          91
          82          83          93          92
          83          84          94          93
          84          85          95          94
          85          86          96          95
          86          87          97          96
          87          88          98          97
          88          89          99          98
          89          90         100          99
