 VARIABLES="X" "Y" "abs(eta) (m)" "angle(phi) (rad)" "PRE1" "PRE2"
ZONE N=    100 ,E =      81 ,F=FEPOINT,ET=QUADRILATERAL
  -50.00000      -50.00000      2.5438426E-06  -2.714185      2.3150069E-06
  1.0544566E-06
  -50.00000      -38.88889      2.3269577E-06  -2.960130      2.2887509E-06
  4.1994133E-07
  -50.00000      -27.77778      1.8772187E-06   3.105571      1.8760009E-06
 -6.7606535E-08
  -50.00000      -16.66667      1.2952721E-06   2.965058      1.2751414E-06
 -2.2747412E-07
  -50.00000      -5.555557      4.6070068E-07   2.859320      4.4246838E-07
 -1.2832321E-07
  -50.00000       5.555557      4.4904604E-07 -0.2324722     -4.3696662E-07
  1.0345300E-07
  -50.00000       16.66666      1.2866143E-06 -0.1589064     -1.2704041E-06
  2.0359194E-07
  -50.00000       27.77778      1.8731121E-06 -2.3597838E-02 -1.8725906E-06
  4.4197293E-08
  -50.00000       38.88889      2.3296438E-06  0.1911880     -2.2871959E-06
 -4.4269140E-07
  -50.00000       50.00000      2.5536158E-06  0.4354926     -2.3152672E-06
 -1.0772610E-06
  -38.88889      -50.00000      2.9920880E-06  -2.958993      2.9423443E-06
  5.4332349E-07
  -38.88889      -38.88889      2.7731273E-06   3.031361      2.7562962E-06
 -3.0506834E-07
  -38.88889      -27.77778      2.4423168E-06   2.787548      2.2908398E-06
 -8.4673729E-07
  -38.88889      -16.66667      1.7756220E-06   2.614152      1.5343114E-06
 -8.9371230E-07
  -38.88889      -5.555557      6.7054305E-07   2.486064      5.3155691E-07
 -4.0874841E-07
  -38.88889       5.555557      6.4637021E-07 -0.6270905     -5.2339067E-07
  3.7928444E-07
  -38.88889       16.66666      1.7558826E-06 -0.5164473     -1.5268786E-06
  8.6704415E-07
  -38.88889       27.77778      2.4283529E-06 -0.3453029     -2.2850145E-06
  8.2195294E-07
  -38.88889       38.88889      2.7670817E-06 -0.1020550     -2.7526844E-06
  2.8190451E-07
  -38.88889       50.00000      2.9950584E-06  0.1900515     -2.9411308E-06
 -5.6579483E-07
  -27.77778      -50.00000      3.3769977E-06   3.108464      3.3751448E-06
 -1.1185306E-07
  -27.77778      -38.88889      3.4160541E-06   2.788930      3.2058174E-06
 -1.1798984E-06
  -27.77778      -27.77778      3.3031461E-06   2.497449      2.6412424E-06
 -1.9835857E-06
  -27.77778      -16.66667      2.7032536E-06   2.275332      1.7508429E-06
 -2.0596428E-06
  -27.77778      -5.555557      1.2000404E-06   2.099467      6.0528316E-07
 -1.0362091E-06
  -27.77778       5.555557      1.1586792E-06  -1.031675     -5.9484495E-07
  9.9433237E-07
  -27.77778       16.66666      2.6727253E-06 -0.8611925     -1.7413694E-06
  2.0275829E-06
  -27.77778       27.77778      3.2808721E-06 -0.6390089     -2.6335142E-06
  1.9567126E-06
  -27.77778       38.88889      3.4029415E-06 -0.3467160     -3.2004452E-06
  1.1563570E-06
  -27.77778       50.00000      3.3736017E-06 -2.6536696E-02 -3.3724139E-06
  8.9513733E-08
  -16.66667      -50.00000      3.8764038E-06   2.971119      3.8202138E-06
 -6.5762754E-07
  -16.66667      -38.88889      4.1287294E-06   2.617550      3.5746673E-06
 -2.0659529E-06
  -16.66667      -27.77778      4.4934804E-06   2.276634      2.9147930E-06
 -3.4198461E-06
  -16.66667      -16.66667      4.5890406E-06   2.000985      1.9138242E-06
 -4.1709195E-06
  -16.66667      -5.555557      3.3262911E-06   1.771311      6.6250874E-07
 -3.2596465E-06
  -16.66667       5.555557      3.2436196E-06  -1.368819     -6.5069224E-07
  3.1776829E-06
  -16.66667       16.66666      4.5497300E-06  -1.139292     -1.9028677E-06
  4.1326912E-06
  -16.66667       27.77778      4.4668195E-06 -0.8625271     -2.9057564E-06
  3.3924998E-06
  -16.66667       38.88889      4.1115022E-06 -0.5199496     -3.5681435E-06
  2.0427440E-06
  -16.66667       50.00000      3.8691105E-06 -0.1650723     -3.8165158E-06
  6.3578625E-07
  -5.555557      -50.00000      4.0971813E-06   2.881508      3.9593860E-06
 -1.0536392E-06
  -5.555557      -38.88889      4.6183250E-06   2.498523      3.6958563E-06
 -2.7693993E-06
  -5.555557      -27.77778      5.9101349E-06   2.104200      3.0051112E-06
 -5.0891058E-06
  -5.555557      -16.66667      9.8771470E-06   1.772151      1.9753929E-06
 -9.6775957E-06
  -5.555557      -5.555557      3.0071236E-05   1.593963      6.9658648E-07
 -3.0063167E-05
  -5.555557       5.555557      3.0011090E-05  -1.547995     -6.8423822E-07
  3.0003288E-05
  -5.555557       16.66666      9.8240334E-06  -1.369504     -1.9641766E-06
  9.6256763E-06
  -5.555557       27.77778      5.8841902E-06  -1.036652     -2.9956705E-06
  5.0645485E-06
  -5.555557       38.88889      4.5996667E-06 -0.6401340     -3.6890051E-06
  2.7473945E-06
  -5.555557       50.00000      4.0878999E-06 -0.2553182     -3.9553825E-06
  1.0324126E-06
   5.555557      -50.00000      4.0969308E-06   2.881580      3.9592196E-06
 -1.0532909E-06
   5.555557      -38.88889      4.6174905E-06   2.498676      3.6956098E-06
 -2.7683366E-06
   5.555557      -27.77778      5.9067024E-06   2.104492      3.0048516E-06
 -5.0852727E-06
   5.555557      -16.66667      9.8533455E-06   1.772622      1.9751874E-06
 -9.6533440E-06
   5.555557      -5.555557      3.0033481E-05   1.593984      6.9635200E-07
 -3.0025407E-05
   5.555557       5.555557      3.0092671E-05  -1.548046     -6.8456217E-07
  3.0084884E-05
   5.555557       16.66666      9.8409064E-06  -1.369821     -1.9644910E-06
  9.6428321E-06
   5.555557       27.77778      5.8879837E-06  -1.036990     -2.9958892E-06
  5.0688263E-06
   5.555557       38.88889      4.6005116E-06 -0.6403310     -3.6891413E-06
  2.7486260E-06
   5.555557       50.00000      4.0882051E-06 -0.2554151     -3.9555775E-06
  1.0328728E-06
   16.66666      -50.00000      3.8758599E-06   2.971296      3.8197941E-06
 -6.5685873E-07
   16.66666      -38.88889      4.1272165E-06   2.617923      3.5741277E-06
 -2.0638624E-06
   16.66666      -27.77778      4.4885805E-06   2.277369      2.9141258E-06
 -3.4139748E-06
   16.66666      -16.66667      4.5734660E-06   2.002368      1.9130764E-06
 -4.1541221E-06
   16.66666      -5.555557      3.2624914E-06   1.775071      6.6181900E-07
 -3.1946590E-06
   16.66666       5.555557      3.2991720E-06  -1.372011     -6.5151715E-07
  3.2342018E-06
   16.66666       16.66666      4.5677330E-06  -1.140937     -1.9035721E-06
  4.1521798E-06
   16.66666       27.77778      4.4724025E-06 -0.8634002     -2.9064215E-06
  3.3992792E-06
   16.66666       38.88889      4.1132489E-06 -0.5204071     -3.5687237E-06
  2.0452446E-06
   16.66666       50.00000      3.8698017E-06 -0.1653115     -3.8170451E-06
  6.3681284E-07
   27.77778      -50.00000      3.3763456E-06   3.108758      3.3745257E-06
 -1.1084019E-07
   27.77778      -38.88889      3.4144753E-06   2.789512      3.2050218E-06
 -1.1774871E-06
   27.77778      -27.77778      3.2992116E-06   2.498590      2.6403548E-06
 -1.9782121E-06
   27.77778      -16.66667      2.6949542E-06   2.277488      1.7498922E-06
 -2.0495502E-06
   27.77778      -5.555557      1.1821849E-06   2.107163      6.0411577E-07
 -1.0161718E-06
   27.77778       5.555557      1.1769357E-06  -1.039737     -5.9605605E-07
  1.0148374E-06
   27.77778       16.66666      2.6818188E-06 -0.8635437     -1.7425060E-06
  2.0385842E-06
   27.77778       27.77778      3.2853491E-06 -0.6402804     -2.6346142E-06
  1.9627344E-06
   27.77778       38.88889      3.4047564E-06 -0.3473946     -3.2013661E-06
  1.1591468E-06
   27.77778       50.00000      3.3744268E-06 -2.6920915E-02 -3.3732040E-06
  9.0831684E-08
   38.88889      -50.00000      2.9916057E-06  -2.958719      2.9417210E-06
  5.4404177E-07
   38.88889      -38.88889      2.7720951E-06   3.031981      2.7554586E-06
 -3.0324691E-07
   38.88889      -27.77778      2.4400613E-06   2.788717      2.2897116E-06
 -8.4327945E-07
   38.88889      -16.66667      1.7718735E-06   2.616284      1.5329705E-06
 -8.8855904E-07
   38.88889      -5.555557      6.6471779E-07   2.494253      5.3023933E-07
 -4.0086903E-07
   38.88889       5.555557      6.5225765E-07 -0.6358559     -5.2478288E-07
  3.8735385E-07
   38.88889       16.66666      1.7598384E-06 -0.5188019     -1.5282681E-06
  8.7259832E-07
   38.88889       27.77778      2.4308713E-06 -0.3466106     -2.2863062E-06
  8.2579589E-07
   38.88889       38.88889      2.7684750E-06 -0.1027856     -2.7538636E-06
  2.8405844E-07
   38.88889       50.00000      2.9960645E-06  0.1897314     -2.9422999E-06
 -5.6504331E-07
   50.00000      -50.00000      2.5432771E-06  -2.713963      2.3142577E-06
  1.0547366E-06
   50.00000      -38.88889      2.3262749E-06  -2.959670      2.2878860E-06
  4.2087100E-07
   50.00000      -27.77778      1.8759638E-06   3.106577      1.8748138E-06
 -6.5675195E-08
   50.00000      -16.66667      1.2934927E-06   2.966784      1.2737796E-06
 -2.2496383E-07
   50.00000      -5.555557      4.5828540E-07   2.865875      4.4097604E-07
 -1.2476229E-07
   50.00000       5.555557      4.5138492E-07 -0.2395531     -4.3849522E-07
  1.0709942E-07
   50.00000       16.66666      1.2884981E-06 -0.1608441     -1.2718667E-06
  2.0635480E-07
   50.00000       27.77778      1.8745241E-06 -2.4743397E-02 -1.8739503E-06
  4.6377359E-08
   50.00000       38.88889      2.3309028E-06  0.1906667     -2.2886625E-06
 -4.4173763E-07
   50.00000       50.00000      2.5542993E-06  0.4351485     -2.3162577E-06
 -1.0767524E-06
           1           2          12          11
           2           3          13          12
           3           4          14          13
           4           5          15          14
           5           6          16          15
           6           7          17          16
           7           8          18          17
           8           9          19          18
           9          10          20          19
          11          12          22          21
          12          13          23          22
          13          14          24          23
          14          15          25          24
          15          16          26          25
          16          17          27          26
          17          18          28          27
          18          19          29          28
          19          20          30          29
          21          22          32          31
          22          23          33          32
          23          24          34          33
          24          25          35          34
          25          26          36          35
          26          27          37          36
          27          28          38          37
          28          29          39          38
          29          30          40          39
          31          32          42          41
          32          33          43          42
          33          34          44          43
          34          35          45          44
          35          36          46          45
          36          37          47          46
          37          38          48          47
          38          39          49          48
          39          40          50          49
          41          42          52          51
          42          43          53          52
          43          44          54          53
          44          45          55          54
          45          46          56          55
          46          47          57          56
          47          48          58          57
          48          49          59          58
          49          50          60          59
          51          52          62          61
          52          53          63          62
          53          54          64          63
          54          55          65          64
          55          56          66          65
          56          57          67          66
          57          58          68          67
          58          59          69          68
          59          60          70          69
          61          62          72          71
          62          63          73          72
          63          64          74          73
          64          65          75          74
          65          66          76          75
          66          67          77          76
          67          68          78          77
          68          69          79          78
          69          70          80          79
          71          72          82          81
          72          73          83          82
          73          74          84          83
          74          75          85          84
          75          76          86          85
          76          77          87          86
          77          78          88          87
          78          79          89          88
          79          80          90          89
          81          82          92          91
          82          83          93          92
          83          84          94          93
          84          85          95          94
          85          86          96          95
          86          87          97          96
          87          88          98          97
          88          89          99          98
          89          90         100          99
