 VARIABLES="X" "Y" "abs(eta) (m)" "angle(phi) (rad)" "PRE1" "PRE2"
ZONE N=    100 ,E =      81 ,F=FEPOINT,ET=QUADRILATERAL
  -50.00000      -50.00000      1.4234032E-04   1.860397      4.0648065E-05
 -1.3641297E-04
  -50.00000      -38.88889      1.4720458E-04   1.851756      4.0816543E-05
 -1.4143267E-04
  -50.00000      -27.77778      1.4887103E-04   1.849413      4.0943378E-05
 -1.4313009E-04
  -50.00000      -16.66667      1.5122905E-04   1.845537      4.1028008E-05
 -1.4555729E-04
  -50.00000      -5.555557      1.5331314E-04   1.841994      4.1070336E-05
 -1.4770967E-04
  -50.00000       5.555557      1.5331338E-04   1.841993      4.1070329E-05
 -1.4770991E-04
  -50.00000       16.66666      1.5122961E-04   1.845536      4.1028041E-05
 -1.4555787E-04
  -50.00000       27.77778      1.4887145E-04   1.849412      4.0943381E-05
 -1.4313053E-04
  -50.00000       38.88889      1.4720573E-04   1.851754      4.0816587E-05
 -1.4143385E-04
  -50.00000       50.00000      1.4234132E-04   1.860395      4.0648130E-05
 -1.3641400E-04
  -38.88889      -50.00000      1.4720461E-04   1.851756      4.0816547E-05
 -1.4143270E-04
  -38.88889      -38.88889      1.4977386E-04   1.847983      4.0985680E-05
 -1.4405687E-04
  -38.88889      -27.77778      1.5612190E-04   1.837276      4.1112646E-05
 -1.5061141E-04
  -38.88889      -16.66667      1.6445087E-04   1.824009      4.1197436E-05
 -1.5920697E-04
  -38.88889      -5.555557      1.7035467E-04   1.815307      4.1239793E-05
 -1.6528761E-04
  -38.88889       5.555557      1.7035544E-04   1.815306      4.1239789E-05
 -1.6528841E-04
  -38.88889       16.66666      1.6445261E-04   1.824006      4.1197432E-05
 -1.5920876E-04
  -38.88889       27.77778      1.5612371E-04   1.837273      4.1112664E-05
 -1.5061330E-04
  -38.88889       38.88889      1.4977476E-04   1.847981      4.0985691E-05
 -1.4405781E-04
  -38.88889       50.00000      1.4720600E-04   1.851753      4.0816602E-05
 -1.4143412E-04
  -27.77778      -50.00000      1.4887111E-04   1.849413      4.0943371E-05
 -1.4313018E-04
  -27.77778      -38.88889      1.5612193E-04   1.837276      4.1112653E-05
 -1.5061143E-04
  -27.77778      -27.77778      1.7035395E-04   1.815308      4.1239797E-05
 -1.6528685E-04
  -27.77778      -16.66667      1.7810332E-04   1.804957      4.1324674E-05
 -1.7324279E-04
  -27.77778      -5.555557      1.9233588E-04   1.787567      4.1367079E-05
 -1.8783465E-04
  -27.77778       5.555557      1.9233803E-04   1.787565      4.1367079E-05
 -1.8783685E-04
  -27.77778       16.66666      1.7810664E-04   1.804952      4.1324689E-05
 -1.7324620E-04
  -27.77778       27.77778      1.7035761E-04   1.815303      4.1239775E-05
 -1.6529065E-04
  -27.77778       38.88889      1.5612443E-04   1.837272      4.1112664E-05
 -1.5061403E-04
  -27.77778       50.00000      1.4887175E-04   1.849412      4.0943432E-05
 -1.4313083E-04
  -16.66667      -50.00000      1.5122900E-04   1.845537      4.1028037E-05
 -1.4555725E-04
  -16.66667      -38.88889      1.6445083E-04   1.824009      4.1197407E-05
 -1.5920695E-04
  -16.66667      -27.77778      1.7810335E-04   1.804956      4.1324631E-05
 -1.7324284E-04
  -16.66667      -16.66667      2.1353822E-04   1.765953      4.1409385E-05
 -2.0948469E-04
  -16.66667      -5.555557      2.5744643E-04   1.732511      4.1451731E-05
 -2.5408741E-04
  -16.66667       5.555557      2.5745659E-04   1.732505      4.1451713E-05
 -2.5409771E-04
  -16.66667       16.66666      2.1354129E-04   1.765950      4.1409421E-05
 -2.0948781E-04
  -16.66667       27.77778      1.7810879E-04   1.804949      4.1324678E-05
 -1.7324841E-04
  -16.66667       38.88889      1.6445496E-04   1.824002      4.1197451E-05
 -1.5921119E-04
  -16.66667       50.00000      1.5123082E-04   1.845534      4.1028081E-05
 -1.4555913E-04
  -5.555557      -50.00000      1.5331310E-04   1.841994      4.1070318E-05
 -1.4770964E-04
  -5.555557      -38.88889      1.7035464E-04   1.815307      4.1239764E-05
 -1.6528759E-04
  -5.555557      -27.77778      1.9233585E-04   1.787567      4.1367053E-05
 -1.8783462E-04
  -5.555557      -16.66667      2.5744623E-04   1.732511      4.1451691E-05
 -2.5408724E-04
  -5.555557      -5.555557      4.7666542E-04   1.657954      4.1492363E-05
 -4.7485609E-04
  -5.555557       5.555557      4.7676783E-04   1.657935      4.1492356E-05
 -4.7495888E-04
  -5.555557       16.66666      2.5747708E-04   1.732492      4.1451713E-05
 -2.5411847E-04
  -5.555557       27.77778      1.9234681E-04   1.787555      4.1367075E-05
 -1.8784584E-04
  -5.555557       38.88889      1.7035981E-04   1.815300      4.1239742E-05
 -1.6529292E-04
  -5.555557       50.00000      1.5331560E-04   1.841990      4.1070380E-05
 -1.4771221E-04
   5.555557      -50.00000      1.5331345E-04   1.841993      4.1070340E-05
 -1.4770999E-04
   5.555557      -38.88889      1.7035537E-04   1.815306      4.1239768E-05
 -1.6528834E-04
   5.555557      -27.77778      1.9233806E-04   1.787565      4.1367031E-05
 -1.8783689E-04
   5.555557      -16.66667      2.5745659E-04   1.732505      4.1451684E-05
 -2.5409771E-04
   5.555557      -5.555557      4.7676769E-04   1.657935      4.1492356E-05
 -4.7495874E-04
   5.555557       5.555557      4.7686993E-04   1.657916      4.1492352E-05
 -4.7506139E-04
   5.555557       16.66666      2.5748723E-04   1.732485      4.1451698E-05
 -2.5412877E-04
   5.555557       27.77778      1.9234895E-04   1.787552      4.1367068E-05
 -1.8784803E-04
   5.555557       38.88889      1.7036048E-04   1.815299      4.1239749E-05
 -1.6529360E-04
   5.555557       50.00000      1.5331588E-04   1.841989      4.1070376E-05
 -1.4771250E-04
   16.66666      -50.00000      1.5122963E-04   1.845536      4.1028034E-05
 -1.4555790E-04
   16.66666      -38.88889      1.6445258E-04   1.824006      4.1197443E-05
 -1.5920874E-04
   16.66666      -27.77778      1.7810658E-04   1.804953      4.1324689E-05
 -1.7324614E-04
   16.66666      -16.66667      2.1354125E-04   1.765951      4.1409454E-05
 -2.0948776E-04
   16.66666      -5.555557      2.5747708E-04   1.732492      4.1451676E-05
 -2.5411849E-04
   16.66666       5.555557      2.5748726E-04   1.732485      4.1451684E-05
 -2.5412880E-04
   16.66666       16.66666      2.1354439E-04   1.765948      4.1409461E-05
 -2.0949097E-04
   16.66666       27.77778      1.7811210E-04   1.804945      4.1324707E-05
 -1.7325180E-04
   16.66666       38.88889      1.6445675E-04   1.824000      4.1197454E-05
 -1.5921304E-04
   16.66666       50.00000      1.5123142E-04   1.845533      4.1028099E-05
 -1.4555974E-04
   27.77778      -50.00000      1.4887149E-04   1.849412      4.0943389E-05
 -1.4313057E-04
   27.77778      -38.88889      1.5612371E-04   1.837273      4.1112653E-05
 -1.5061330E-04
   27.77778      -27.77778      1.7035758E-04   1.815303      4.1239779E-05
 -1.6529061E-04
   27.77778      -16.66667      1.7810875E-04   1.804950      4.1324703E-05
 -1.7324837E-04
   27.77778      -5.555557      1.9234675E-04   1.787555      4.1367035E-05
 -1.8784578E-04
   27.77778       5.555557      1.9234893E-04   1.787552      4.1367039E-05
 -1.8784803E-04
   27.77778       16.66666      1.7811204E-04   1.804945      4.1324707E-05
 -1.7325174E-04
   27.77778       27.77778      1.7036121E-04   1.815298      4.1239775E-05
 -1.6529435E-04
   27.77778       38.88889      1.5612626E-04   1.837269      4.1112697E-05
 -1.5061592E-04
   27.77778       50.00000      1.4887220E-04   1.849411      4.0943425E-05
 -1.4313130E-04
   38.88889      -50.00000      1.4720576E-04   1.851754      4.0816562E-05
 -1.4143389E-04
   38.88889      -38.88889      1.4977476E-04   1.847981      4.0985706E-05
 -1.4405781E-04
   38.88889      -27.77778      1.5612437E-04   1.837272      4.1112675E-05
 -1.5061397E-04
   38.88889      -16.66667      1.6445501E-04   1.824002      4.1197469E-05
 -1.5921124E-04
   38.88889      -5.555557      1.7035975E-04   1.815300      4.1239789E-05
 -1.6529285E-04
   38.88889       5.555557      1.7036048E-04   1.815299      4.1239782E-05
 -1.6529359E-04
   38.88889       16.66666      1.6445675E-04   1.824000      4.1197469E-05
 -1.5921304E-04
   38.88889       27.77778      1.5612626E-04   1.837269      4.1112700E-05
 -1.5061592E-04
   38.88889       38.88889      1.4977572E-04   1.847979      4.0985731E-05
 -1.4405879E-04
   38.88889       50.00000      1.4720719E-04   1.851751      4.0816616E-05
 -1.4143536E-04
   50.00000      -50.00000      1.4234136E-04   1.860395      4.0648119E-05
 -1.3641405E-04
   50.00000      -38.88889      1.4720605E-04   1.851753      4.0816587E-05
 -1.4143418E-04
   50.00000      -27.77778      1.4887181E-04   1.849412      4.0943403E-05
 -1.4313089E-04
   50.00000      -16.66667      1.5123082E-04   1.845534      4.1028095E-05
 -1.4555913E-04
   50.00000      -5.555557      1.5331560E-04   1.841989      4.1070354E-05
 -1.4771221E-04
   50.00000       5.555557      1.5331588E-04   1.841989      4.1070365E-05
 -1.4771250E-04
   50.00000       16.66666      1.5123140E-04   1.845533      4.1028110E-05
 -1.4555972E-04
   50.00000       27.77778      1.4887212E-04   1.849411      4.0943425E-05
 -1.4313121E-04
   50.00000       38.88889      1.4720720E-04   1.851751      4.0816620E-05
 -1.4143538E-04
   50.00000       50.00000      1.4234240E-04   1.860393      4.0648167E-05
 -1.3641512E-04
           1           2          12          11
           2           3          13          12
           3           4          14          13
           4           5          15          14
           5           6          16          15
           6           7          17          16
           7           8          18          17
           8           9          19          18
           9          10          20          19
          11          12          22          21
          12          13          23          22
          13          14          24          23
          14          15          25          24
          15          16          26          25
          16          17          27          26
          17          18          28          27
          18          19          29          28
          19          20          30          29
          21          22          32          31
          22          23          33          32
          23          24          34          33
          24          25          35          34
          25          26          36          35
          26          27          37          36
          27          28          38          37
          28          29          39          38
          29          30          40          39
          31          32          42          41
          32          33          43          42
          33          34          44          43
          34          35          45          44
          35          36          46          45
          36          37          47          46
          37          38          48          47
          38          39          49          48
          39          40          50          49
          41          42          52          51
          42          43          53          52
          43          44          54          53
          44          45          55          54
          45          46          56          55
          46          47          57          56
          47          48          58          57
          48          49          59          58
          49          50          60          59
          51          52          62          61
          52          53          63          62
          53          54          64          63
          54          55          65          64
          55          56          66          65
          56          57          67          66
          57          58          68          67
          58          59          69          68
          59          60          70          69
          61          62          72          71
          62          63          73          72
          63          64          74          73
          64          65          75          74
          65          66          76          75
          66          67          77          76
          67          68          78          77
          68          69          79          78
          69          70          80          79
          71          72          82          81
          72          73          83          82
          73          74          84          83
          74          75          85          84
          75          76          86          85
          76          77          87          86
          77          78          88          87
          78          79          89          88
          79          80          90          89
          81          82          92          91
          82          83          93          92
          83          84          94          93
          84          85          95          94
          85          86          96          95
          86          87          97          96
          87          88          98          97
          88          89          99          98
          89          90         100          99
