 VARIABLES="X" "Y" "abs(eta) (m)" "angle(phi) (rad)" "PRE1" "PRE2"
ZONE N=    100 ,E =      81 ,F=FEPOINT,ET=QUADRILATERAL
  -50.00000      -50.00000      7.9227930E-06 -0.8216809     -5.3953527E-06
  5.8017940E-06
  -50.00000      -38.88889      7.1458990E-06  -1.286170     -2.0065590E-06
  6.8583959E-06
  -50.00000      -27.77778      5.9507688E-06  -1.668034      5.7772820E-07
  5.9226581E-06
  -50.00000      -16.66667      4.0540967E-06  -1.942955      1.4741793E-06
  3.7765722E-06
  -50.00000      -5.555557      1.4852277E-06  -2.085726      7.3143588E-07
  1.2926341E-06
  -50.00000       5.555557      1.5111493E-06   1.060243     -7.3843847E-07
 -1.3184388E-06
  -50.00000       16.66666      4.0829627E-06   1.199017     -1.4832337E-06
 -3.8040243E-06
  -50.00000       27.77778      5.9825647E-06   1.472148     -5.8921501E-07
 -5.9534786E-06
  -50.00000       38.88889      7.1769559E-06   1.852320      1.9939012E-06
 -6.8944219E-06
  -50.00000       50.00000      7.9460324E-06   2.315280      5.3841727E-06
 -5.8438104E-06
  -38.88889      -50.00000      9.1917509E-06  -1.286519     -2.5779527E-06
  8.8228362E-06
  -38.88889      -38.88889      9.0955291E-06  -1.798460      2.0528810E-06
  8.8608313E-06
  -38.88889      -27.77778      7.8477560E-06  -2.242081      4.8812472E-06
  6.1449732E-06
  -38.88889      -16.66667      5.6206263E-06  -2.576497      4.7468302E-06
  3.0098245E-06
  -38.88889      -5.555557      2.1237390E-06  -2.757878      1.9693016E-06
  7.9505861E-07
  -38.88889       5.555557      2.1298731E-06  0.3948084     -1.9660226E-06
 -8.1921593E-07
  -38.88889       16.66666      5.6338063E-06  0.5685572     -4.7474882E-06
 -3.0333358E-06
  -38.88889       27.77778      7.8708626E-06  0.9008117     -4.8876004E-06
 -6.1694282E-06
  -38.88889       38.88889      9.1263128E-06   1.342650     -2.0641151E-06
 -8.8898259E-06
  -38.88889       50.00000      9.2233495E-06   1.852638      2.5652423E-06
 -8.8594416E-06
  -27.77778      -50.00000      1.0723813E-05  -1.668317      1.0441343E-06
  1.0672860E-05
  -27.77778      -38.88889      1.0991263E-05  -2.241841      6.8344207E-06
  8.6080527E-06
  -27.77778      -27.77778      1.0630344E-05  -2.753303      9.8389974E-06
  4.0247160E-06
  -27.77778      -16.66667      8.3304285E-06   3.102493      8.3240620E-06
 -3.2563139E-07
  -27.77778      -5.555557      3.4262800E-06   2.853992      3.2855532E-06
 -9.7187205E-07
  -27.77778       5.555557      3.4009097E-06 -0.2786525     -3.2697262E-06
  9.3545560E-07
  -27.77778       16.66666      8.3192899E-06 -3.5857070E-02 -8.3139421E-06
  2.9824145E-07
  -27.77778       27.77778      1.0637444E-05  0.3901879     -9.8379078E-06
 -4.0460818E-06
  -27.77778       38.88889      1.1014859E-05  0.9005413     -6.8422751E-06
 -8.6319405E-06
  -27.77778       50.00000      1.0756431E-05   1.472383     -1.0568725E-06
 -1.0704383E-05
  -16.66667      -50.00000      1.2190798E-05  -1.942773      4.4308440E-06
  1.1357076E-05
  -16.66667      -38.88889      1.3123093E-05  -2.575368      1.1075001E-05
  7.0398801E-06
  -16.66667      -27.77778      1.3879104E-05   3.103345      1.3868953E-05
 -5.3071568E-07
  -16.66667      -16.66667      1.3675151E-05   2.566744      1.1477208E-05
 -7.4352843E-06
  -16.66667      -5.555557      7.7245859E-06   2.175292      4.3902487E-06
 -6.3557013E-06
  -16.66667       5.555557      7.6411843E-06 -0.9629143     -4.3641107E-06
  6.2723393E-06
  -16.66667       16.66666      1.3638622E-05 -0.5733008     -1.1458013E-05
  7.3976989E-06
  -16.66667       27.77778      1.3870842E-05 -3.6762990E-02 -1.3861470E-05
  5.0981879E-07
  -16.66667       38.88889      1.3137509E-05  0.5673546     -1.1079197E-05
 -7.0601372E-06
  -16.66667       50.00000      1.2220726E-05   1.198739     -4.4426379E-06
 -1.1384600E-05
  -5.555557      -50.00000      1.3470205E-05  -2.083685      6.6097805E-06
  1.1737002E-05
  -5.555557      -38.88889      1.4883419E-05  -2.752893      1.3773157E-05
  5.6405938E-06
  -5.555557      -27.77778      1.7075710E-05   2.858037      1.6393820E-05
 -4.7772942E-06
  -5.555557      -16.66667      2.3069853E-05   2.176964      1.3143408E-05
 -1.8959667E-05
  -5.555557      -5.555557      4.6802503E-05   1.678913      5.0502704E-06
 -4.6529229E-05
  -5.555557       5.555557      4.6720070E-05  -1.463140     -5.0200010E-06
  4.6449590E-05
  -5.555557       16.66666      2.3032560E-05 -0.9647278     -1.3120281E-05
  1.8930321E-05
  -5.555557       27.77778      1.7061366E-05 -0.2828614     -1.6383359E-05
  4.7619037E-06
  -5.555557       38.88889      1.4891963E-05  0.3896767     -1.3775541E-05
 -5.6572990E-06
  -5.555557       50.00000      1.3497473E-05   1.058091     -6.6210082E-06
 -1.1761974E-05
   5.555557      -50.00000      1.3470220E-05  -2.083694      6.6098992E-06
  1.1736953E-05
   5.555557      -38.88889      1.4883267E-05  -2.752839      1.3772710E-05
  5.6412832E-06
   5.555557      -27.77778      1.7073779E-05   2.858240      1.6392938E-05
 -4.7734152E-06
   5.555557      -16.66667      2.3052335E-05   2.177422      1.3142101E-05
 -1.8939252E-05
   5.555557      -5.555557      4.6749046E-05   1.679003      5.0486710E-06
 -4.6475630E-05
   5.555557       5.555557      4.6853485E-05  -1.463419     -5.0213557E-06
  4.6583635E-05
   5.555557       16.66666      2.3054850E-05 -0.9653179     -1.3121795E-05
  1.8956387E-05
   5.555557       27.77778      1.7064069E-05 -0.2831270     -1.6384691E-05
  4.7670092E-06
   5.555557       38.88889      1.4892346E-05  0.3895808     -1.3776438E-05
 -5.6561234E-06
   5.555557       50.00000      1.3497606E-05   1.058059     -6.6214438E-06
 -1.1761881E-05
   16.66666      -50.00000      1.2190777E-05  -1.942785      4.4309718E-06
  1.1357004E-05
   16.66666      -38.88889      1.3123115E-05  -2.575248      1.1074178E-05
  7.0412157E-06
   16.66666      -27.77778      1.3876695E-05   3.103828      1.3866800E-05
 -5.2392090E-07
   16.66666      -16.66667      1.3659545E-05   2.568047      1.1473779E-05
 -7.4118543E-06
   16.66666      -5.555557      7.6672122E-06   2.179780      4.3859050E-06
 -6.2888776E-06
   16.66666       5.555557      7.7033892E-06 -0.9678201     -4.3685641E-06
  6.3449079E-06
   16.66666       16.66666      1.3657514E-05 -0.5748754     -1.1462206E-05
  7.4260024E-06
   16.66666       27.77778      1.3874623E-05 -3.7402615E-02 -1.3864918E-05
  5.1882614E-07
   16.66666       38.88889      1.3138313E-05  0.5671055     -1.1081634E-05
 -7.0578085E-06
   16.66666       50.00000      1.2221216E-05   1.198652     -4.4438007E-06
 -1.1384672E-05
   27.77778      -50.00000      1.0723569E-05  -1.668376      1.0447380E-06
  1.0672557E-05
   27.77778      -38.88889      1.0991248E-05  -2.241767      6.8337695E-06
  8.6085493E-06
   27.77778      -27.77778      1.0629476E-05  -2.752897      9.8365617E-06
  4.0283767E-06
   27.77778      -16.66667      8.3259238E-06   3.103909      8.3200130E-06
 -3.1368080E-07
   27.77778      -5.555557      3.4150917E-06   2.859643      3.2802457E-06
 -9.5017890E-07
   27.77778       5.555557      3.4127966E-06 -0.2846637     -3.2754524E-06
  9.5843177E-07
   27.77778       16.66666      8.3251625E-06 -3.7550729E-02 -8.3192936E-06
  3.1254245E-07
   27.77778       27.77778      1.0639199E-05  0.3895554     -9.8420887E-06
 -4.0405248E-06
   27.77778       38.88889      1.1015616E-05  0.9002857     -6.8449513E-06
 -8.6307846E-06
   27.77778       50.00000      1.0757288E-05   1.472292     -1.0579228E-06
 -1.0705141E-05
   38.88889      -50.00000      9.1909878E-06  -1.286648     -2.5766033E-06
  8.8224360E-06
   38.88889      -38.88889      9.0949106E-06  -1.798500      2.0530972E-06
  8.8601464E-06
   38.88889      -27.77778      7.8476151E-06  -2.241881      4.8799279E-06
  6.1458409E-06
   38.88889      -16.66667      5.6201361E-06  -2.575644      4.7438480E-06
  3.0136089E-06
   38.88889      -5.555557      2.1220437E-06  -2.754370      1.9649310E-06
  8.0132145E-07
   38.88889       5.555557      2.1318026E-06  0.3910189     -1.9708966E-06
 -8.1249516E-07
   38.88889       16.66666      5.6350050E-06  0.5674230     -4.7519366E-06
 -3.0285937E-06
   38.88889       27.77778      7.8717867E-06  0.9003559     -4.8909865E-06
 -6.1679234E-06
   38.88889       38.88889      9.1272987E-06   1.342490     -2.0657617E-06
 -8.8904562E-06
   38.88889       50.00000      9.2246419E-06   1.852577      2.5650602E-06
 -8.8608394E-06
   50.00000      -50.00000      7.9209649E-06 -0.8218969     -5.3928547E-06
  5.8016208E-06
   50.00000      -38.88889      7.1447380E-06  -1.286363     -2.0049122E-06
  6.8576678E-06
   50.00000      -27.77778      5.9500885E-06  -1.668117      5.7815197E-07
  5.9219333E-06
   50.00000      -16.66667      4.0536006E-06  -1.942785      1.4733572E-06
  3.7763600E-06
   50.00000      -5.555557      1.4843092E-06  -2.084470      7.2935956E-07
  1.2927524E-06
   50.00000       5.555557      1.5121497E-06   1.058674     -7.4099597E-07
 -1.3181508E-06
   50.00000       16.66666      4.0839022E-06   1.198544     -1.4853730E-06
 -3.8041985E-06
   50.00000       27.77778      5.9838494E-06   1.471997     -5.9024018E-07
 -5.9546678E-06
   50.00000       38.88889      7.1786158E-06   1.852267      1.9939921E-06
 -6.8961235E-06
   50.00000       50.00000      7.9479496E-06   2.315271      5.3854151E-06
 -5.8452724E-06
           1           2          12          11
           2           3          13          12
           3           4          14          13
           4           5          15          14
           5           6          16          15
           6           7          17          16
           7           8          18          17
           8           9          19          18
           9          10          20          19
          11          12          22          21
          12          13          23          22
          13          14          24          23
          14          15          25          24
          15          16          26          25
          16          17          27          26
          17          18          28          27
          18          19          29          28
          19          20          30          29
          21          22          32          31
          22          23          33          32
          23          24          34          33
          24          25          35          34
          25          26          36          35
          26          27          37          36
          27          28          38          37
          28          29          39          38
          29          30          40          39
          31          32          42          41
          32          33          43          42
          33          34          44          43
          34          35          45          44
          35          36          46          45
          36          37          47          46
          37          38          48          47
          38          39          49          48
          39          40          50          49
          41          42          52          51
          42          43          53          52
          43          44          54          53
          44          45          55          54
          45          46          56          55
          46          47          57          56
          47          48          58          57
          48          49          59          58
          49          50          60          59
          51          52          62          61
          52          53          63          62
          53          54          64          63
          54          55          65          64
          55          56          66          65
          56          57          67          66
          57          58          68          67
          58          59          69          68
          59          60          70          69
          61          62          72          71
          62          63          73          72
          63          64          74          73
          64          65          75          74
          65          66          76          75
          66          67          77          76
          67          68          78          77
          68          69          79          78
          69          70          80          79
          71          72          82          81
          72          73          83          82
          73          74          84          83
          74          75          85          84
          75          76          86          85
          76          77          87          86
          77          78          88          87
          78          79          89          88
          79          80          90          89
          81          82          92          91
          82          83          93          92
          83          84          94          93
          84          85          95          94
          85          86          96          95
          86          87          97          96
          87          88          98          97
          88          89          99          98
          89          90         100          99
