 VARIABLES="X" "Y" "abs(eta) (m)" "angle(phi) (rad)" "PRE1" "PRE2"
ZONE N=    100 ,E =      81 ,F=FEPOINT,ET=QUADRILATERAL
  -50.00000      -50.00000      4.6672426E-06  -1.851999      1.2952127E-06
  4.4839244E-06
  -50.00000      -38.88889      4.2616916E-06  -2.196221      2.4949725E-06
  3.4550148E-06
  -50.00000      -27.77778      3.5522626E-06  -2.480141      2.8030956E-06
  2.1820231E-06
  -50.00000      -16.66667      2.4530173E-06  -2.683735      2.2003605E-06
  1.0843004E-06
  -50.00000      -5.555557      8.5261371E-07  -2.810429      8.0628655E-07
  2.7722214E-07
  -50.00000       5.555557      8.6020714E-07  0.3622681     -8.0437576E-07
 -3.0485396E-07
  -50.00000       16.66666      2.4647275E-06  0.4678479     -2.1998701E-06
 -1.1115094E-06
  -50.00000       27.77778      3.5709922E-06  0.6672147     -2.8051868E-06
 -2.2097315E-06
  -50.00000       38.88889      4.2882421E-06  0.9484216     -2.4999003E-06
 -3.4841810E-06
  -50.00000       50.00000      4.6998680E-06   1.290008     -1.3023963E-06
 -4.5158081E-06
  -38.88889      -50.00000      5.4829766E-06  -2.195848      3.2083060E-06
  4.4463250E-06
  -38.88889      -38.88889      5.2079504E-06  -2.584522      4.4205472E-06
  2.7534545E-06
  -38.88889      -27.77778      4.5574070E-06  -2.918627      4.4445933E-06
  1.0077451E-06
  -38.88889      -16.66667      3.2788989E-06   3.110941      3.2773587E-06
 -1.0048738E-07
  -38.88889      -5.555557      1.2522628E-06   2.981498      1.2362491E-06
 -1.9962539E-07
  -38.88889       5.555557      1.2395579E-06 -0.1371104     -1.2279248E-06
  1.6942427E-07
  -38.88889       16.66666      3.2719349E-06 -2.1816395E-02 -3.2711564E-06
  7.1376164E-08
  -38.88889       27.77778      4.5609991E-06  0.2289000     -4.4420326E-06
 -1.0349198E-06
  -38.88889       38.88889      5.2237428E-06  0.5613068     -4.4222129E-06
 -2.7805615E-06
  -38.88889       50.00000      5.5097853E-06  0.9480450     -3.2137048E-06
 -4.4754706E-06
  -27.77778      -50.00000      6.4013293E-06  -2.478781      5.0459439E-06
  3.9389674E-06
  -27.77778      -38.88889      6.3808225E-06  -2.917695      6.2215536E-06
  1.4167443E-06
  -27.77778      -27.77778      6.2348931E-06   2.990830      6.1641699E-06
 -9.3642939E-07
  -27.77778      -16.66667      4.9420546E-06   2.677845      4.4200856E-06
 -2.2105985E-06
  -27.77778      -5.555557      2.0453515E-06   2.445339      1.5692966E-06
 -1.3117815E-06
  -27.77778       5.555557      2.0058931E-06 -0.6836868     -1.5550670E-06
  1.2670333E-06
  -27.77778       16.66666      4.9168143E-06 -0.4587820     -4.4083790E-06
  2.1774429E-06
  -27.77778       27.77778      6.2236227E-06 -0.1465657     -6.1568958E-06
  9.0890705E-07
  -27.77778       38.88889      6.3850161E-06  0.2279306     -6.2198746E-06
 -1.4427719E-06
  -27.77778       50.00000      6.4206411E-06  0.6658181     -5.0492672E-06
 -3.9660472E-06
  -16.66667      -50.00000      7.3701967E-06  -2.680254      6.5996983E-06
  3.2808202E-06
  -16.66667      -38.88889      7.6451597E-06   3.113695      7.6421848E-06
 -2.1325593E-07
  -16.66667      -27.77778      8.2268552E-06   2.679052      7.3623914E-06
 -3.6710142E-06
  -16.66667      -16.66667      8.3081513E-06   2.238724      5.1457400E-06
 -6.5227860E-06
  -16.66667      -5.555557      4.5161310E-06   1.998837      1.8745957E-06
 -4.1086896E-06
  -16.66667       5.555557      4.4360422E-06  -1.139054     -1.8562795E-06
  4.0289819E-06
  -16.66667       16.66666      8.2633378E-06 -0.9009985     -5.1301076E-06
  6.4780202E-06
  -16.66667       27.77778      8.2048937E-06 -0.4600468     -7.3518454E-06
  3.6428910E-06
  -16.66667       38.88889      7.6403012E-06 -2.4633456E-02 -7.6379829E-06
  1.8818798E-07
  -16.66667       50.00000      7.3830465E-06  0.4643264     -6.6013549E-06
 -3.3062806E-06
  -5.555557      -50.00000      7.7022332E-06  -2.796327      7.2476892E-06
  2.6067976E-06
  -5.555557      -38.88889      8.7254011E-06   2.991627      8.6274695E-06
 -1.3036079E-06
  -5.555557      -27.77778      1.0140989E-05   2.450891      7.8166659E-06
 -6.4606024E-06
  -5.555557      -16.66667      1.3449441E-05   2.000643      5.6048107E-06
 -1.2225938E-05
  -5.555557      -5.555557      2.6616586E-05   1.646832      2.0218581E-06
 -2.6539683E-05
  -5.555557       5.555557      2.6475476E-05  -1.495118     -2.0017169E-06
  2.6399697E-05
  -5.555557       16.66666      1.3411593E-05  -1.141056     -5.5877390E-06
  1.2192129E-05
  -5.555557       27.77778      1.0115742E-05 -0.6894901     -7.8050080E-06
  6.4350670E-06
  -5.555557       38.88889      8.7167937E-06 -0.1474506     -8.6222062E-06
  1.2806444E-06
  -5.555557       50.00000      7.7115847E-06  0.3482061     -7.2487842E-06
 -2.6312864E-06
   5.555557      -50.00000      7.7021259E-06  -2.796288      7.2474886E-06
  2.6070377E-06
   5.555557      -38.88889      8.7249045E-06   2.991720      8.6270993E-06
 -1.3027316E-06
   5.555557      -27.77778      1.0138102E-05   2.451164      7.8162029E-06
 -6.4566307E-06
   5.555557      -16.66667      1.3433726E-05   2.001128      5.6041754E-06
 -1.2208940E-05
   5.555557      -5.555557      2.6501380E-05   1.647132      2.0210302E-06
 -2.6424204E-05
   5.555557       5.555557      2.6553265E-05  -1.495305     -2.0026343E-06
  2.6477639E-05
   5.555557       16.66666      1.3431910E-05  -1.141694     -5.5884111E-06
  1.2214166E-05
   5.555557       27.77778      1.0119225E-05 -0.6898124     -7.8056210E-06
  6.4397991E-06
   5.555557       38.88889      8.7174685E-06 -0.1475765     -8.6227128E-06
  1.2818288E-06
   5.555557       50.00000      7.7117711E-06  0.3481361     -7.2491439E-06
 -2.6308426E-06
   16.66666      -50.00000      7.3698193E-06  -2.680184      6.5991289E-06
  3.2811174E-06
   16.66666      -38.88889      7.6441502E-06   3.113979      7.6412362E-06
 -2.1105411E-07
   16.66666      -27.77778      8.2230526E-06   2.679588      7.3609540E-06
 -3.6653723E-06
   16.66666      -16.66667      8.2901515E-06   2.240155      5.1438997E-06
 -6.5013000E-06
   16.66666      -5.555557      4.4643448E-06   2.003630      1.8725458E-06
 -4.0526470E-06
   16.66666       5.555557      4.4924200E-06  -1.144356     -1.8582098E-06
  4.0900968E-06
   16.66666       16.66666      8.2840606E-06 -0.9026750     -5.1320776E-06
  6.5028794E-06
   16.66666       27.77778      8.2096030E-06 -0.4607331     -7.3535612E-06
  3.6500296E-06
   16.66666       38.88889      7.6417873E-06 -2.5001809E-02 -7.6393990E-06
  1.9103859E-07
   16.66666       50.00000      7.3835522E-06  0.4641685     -6.6023290E-06
 -3.3054648E-06
   27.77778      -50.00000      6.4009510E-06  -2.478681      5.0452536E-06
  3.9392371E-06
   27.77778      -38.88889      6.3800298E-06  -2.917358      6.2203035E-06
  1.4186630E-06
   27.77778      -27.77778      6.2322501E-06   2.991482      6.1621654E-06
 -9.3201993E-07
   27.77778      -16.66667      4.9354398E-06   2.679407      4.4176145E-06
 -2.2007378E-06
   27.77778      -5.555557      2.0295920E-06   2.452507      1.5664957E-06
 -1.2904784E-06
   27.77778       5.555557      2.0220991E-06 -0.6912583     -1.5579152E-06
  1.2891026E-06
   27.77778       16.66666      4.9243467E-06 -0.4606074     -4.4111443E-06
  2.1888341E-06
   27.77778       27.77778      6.2268427E-06 -0.1474094     -6.1593119E-06
  9.1457457E-07
   27.77778       38.88889      6.3863231E-06  0.2274652     -6.2218187E-06
 -1.4401718E-06
   27.77778       50.00000      6.4212923E-06  0.6655998     -5.0506451E-06
 -3.9653469E-06
   38.88889      -50.00000      5.4825832E-06  -2.195800      3.2078599E-06
  4.4461617E-06
   38.88889      -38.88889      5.2073901E-06  -2.584262      4.4193566E-06
  2.7543058E-06
   38.88889      -27.77778      4.5561974E-06  -2.917946      4.4427265E-06
  1.0105033E-06
   38.88889      -16.66667      3.2762287E-06   3.112610      3.2748528E-06
 -9.4940802E-08
   38.88889      -5.555557      1.2481783E-06   2.986632      1.2332221E-06
 -1.9264517E-07
   38.88889       5.555557      1.2436587E-06 -0.1425350     -1.2310469E-06
  1.7666522E-07
   38.88889       16.66666      3.2750377E-06 -2.3689538E-02 -3.2741189E-06
  7.7576878E-08
   38.88889       27.77778      4.5627121E-06  0.2280122     -4.4446183E-06
 -1.0313628E-06
   38.88889       38.88889      5.2246796E-06  0.5608780     -4.4241983E-06
 -2.7791632E-06
   38.88889       50.00000      5.5104592E-06  0.9478416     -3.2150081E-06
 -4.4753642E-06
   50.00000      -50.00000      4.6666382E-06  -1.852026      1.2951673E-06
  4.4833082E-06
   50.00000      -38.88889      4.2611059E-06  -2.196107      2.4942340E-06
  3.4548259E-06
   50.00000      -27.77778      3.5515095E-06  -2.479737      2.8016193E-06
  2.1826929E-06
   50.00000      -16.66667      2.4517624E-06  -2.682787      2.1982062E-06
  1.0858308E-06
   50.00000      -5.555557      8.5112003E-07  -2.806459      8.0376918E-07
  2.7992928E-07
   50.00000       5.555557      8.6169132E-07  0.3580760     -8.0703671E-07
 -3.0199948E-07
   50.00000       16.66666      2.4661324E-06  0.4666766     -2.2024251E-06
 -1.1095641E-06
   50.00000       27.77778      3.5720175E-06  0.6666064     -2.8073362E-06
 -2.2086585E-06
   50.00000       38.88889      4.2890715E-06  0.9481179     -2.5014422E-06
 -3.4840953E-06
   50.00000       50.00000      4.7007106E-06   1.289860     -1.3032968E-06
 -4.5164252E-06
           1           2          12          11
           2           3          13          12
           3           4          14          13
           4           5          15          14
           5           6          16          15
           6           7          17          16
           7           8          18          17
           8           9          19          18
           9          10          20          19
          11          12          22          21
          12          13          23          22
          13          14          24          23
          14          15          25          24
          15          16          26          25
          16          17          27          26
          17          18          28          27
          18          19          29          28
          19          20          30          29
          21          22          32          31
          22          23          33          32
          23          24          34          33
          24          25          35          34
          25          26          36          35
          26          27          37          36
          27          28          38          37
          28          29          39          38
          29          30          40          39
          31          32          42          41
          32          33          43          42
          33          34          44          43
          34          35          45          44
          35          36          46          45
          36          37          47          46
          37          38          48          47
          38          39          49          48
          39          40          50          49
          41          42          52          51
          42          43          53          52
          43          44          54          53
          44          45          55          54
          45          46          56          55
          46          47          57          56
          47          48          58          57
          48          49          59          58
          49          50          60          59
          51          52          62          61
          52          53          63          62
          53          54          64          63
          54          55          65          64
          55          56          66          65
          56          57          67          66
          57          58          68          67
          58          59          69          68
          59          60          70          69
          61          62          72          71
          62          63          73          72
          63          64          74          73
          64          65          75          74
          65          66          76          75
          66          67          77          76
          67          68          78          77
          68          69          79          78
          69          70          80          79
          71          72          82          81
          72          73          83          82
          73          74          84          83
          74          75          85          84
          75          76          86          85
          76          77          87          86
          77          78          88          87
          78          79          89          88
          79          80          90          89
          81          82          92          91
          82          83          93          92
          83          84          94          93
          84          85          95          94
          85          86          96          95
          86          87          97          96
          87          88          98          97
          88          89          99          98
          89          90         100          99
