 VARIABLES="X" "Y" "abs(eta) (m)" "angle(phi) (rad)" "PRE1" "PRE2"
ZONE N=    100 ,E =      81 ,F=FEPOINT,ET=QUADRILATERAL
  -50.00000      -50.00000      9.2162172E-06 -0.3188389     -8.7517201E-06
  2.8889538E-06
  -50.00000      -38.88889      8.4417743E-06 -0.4758118     -7.5040716E-06
  3.8668409E-06
  -50.00000      -27.77778      6.8817744E-06 -0.6563830     -5.4517741E-06
  4.1996404E-06
  -50.00000      -16.66667      4.5656584E-06 -0.7926400     -3.2049443E-06
  3.2517028E-06
  -50.00000      -5.555557      1.4155218E-06 -0.9754769     -7.9378680E-07
  1.1720086E-06
  -50.00000       5.555557      2.0634052E-06   2.599510      1.7675877E-06
 -1.0645538E-06
  -50.00000       16.66666      5.1585125E-06   2.498855      4.1291705E-06
 -3.0919578E-06
  -50.00000       27.77778      7.4264208E-06   2.578695      6.2806139E-06
 -3.9630313E-06
  -50.00000       38.88889      8.9315045E-06   2.732852      8.1957469E-06
 -3.5498590E-06
  -50.00000       50.00000      9.6074564E-06   2.878287      9.2763330E-06
 -2.5005725E-06
  -38.88889      -50.00000      1.0920151E-05 -0.4679344     -9.7462553E-06
  4.9254654E-06
  -38.88889      -38.88889      1.0337926E-05 -0.6974076     -7.9241208E-06
  6.6393550E-06
  -38.88889      -27.77778      9.0248232E-06 -0.8495457     -5.9593108E-06
  6.7774668E-06
  -38.88889      -16.66667      6.7461256E-06  -1.038326     -3.4247612E-06
  5.8121614E-06
  -38.88889      -5.555557      1.9745196E-06  -1.162526     -7.8392895E-07
  1.8122314E-06
  -38.88889       5.555557      2.8015768E-06   2.349558      1.9678230E-06
 -1.9941176E-06
  -38.88889       16.66666      7.4380314E-06   2.229908      4.5551587E-06
 -5.8800374E-06
  -38.88889       27.77778      9.6924286E-06   2.375614      6.9853750E-06
 -6.7192041E-06
  -38.88889       38.88889      1.0906897E-05   2.509634      8.8004699E-06
 -6.4429901E-06
  -38.88889       50.00000      1.1411988E-05   2.725698      1.0439177E-05
 -4.6105370E-06
  -27.77778      -50.00000      1.2592625E-05 -0.6341709     -1.0144156E-05
  7.4612544E-06
  -27.77778      -38.88889      1.2760247E-05 -0.8367354     -8.5479642E-06
  9.4739753E-06
  -27.77778      -27.77778      1.1331535E-05 -0.9826862     -6.2866179E-06
  9.4277311E-06
  -27.77778      -16.66667      1.0885405E-05  -1.230265     -3.6355964E-06
  1.0260335E-05
  -27.77778      -5.555557      5.0615599E-06  -1.418164     -7.6956354E-07
  5.0027152E-06
  -27.77778       5.555557      5.8955943E-06   1.939340      2.1239309E-06
 -5.4997226E-06
  -27.77778       16.66666      1.1703736E-05   2.005829      4.9324217E-06
 -1.0613607E-05
  -27.77778       27.77778      1.2171000E-05   2.231734      7.4712584E-06
 -9.6079939E-06
  -27.77778       38.88889      1.3432874E-05   2.364237      9.5745581E-06
 -9.4217803E-06
  -27.77778       50.00000      1.3142909E-05   2.558918      1.0974249E-05
 -7.2320072E-06
  -16.66667      -50.00000      1.4247398E-05 -0.7382705     -1.0537856E-05
  9.5886371E-06
  -16.66667      -38.88889      1.6164127E-05 -0.9992513     -8.7436956E-06
  1.3595101E-05
  -16.66667      -27.77778      1.8388395E-05  -1.210004     -6.4913897E-06
  1.7204504E-05
  -16.66667      -16.66667      1.2504846E-05  -1.262469     -3.7947896E-06
  1.1915148E-05
  -16.66667      -5.555557      1.7510481E-05  -1.526234     -7.8004763E-07
  1.7493097E-05
  -16.66667       5.555557      1.8723678E-05   1.691417      2.2529916E-06
 -1.8587634E-05
  -16.66667       16.66666      1.3780344E-05   1.958377      5.2082728E-06
 -1.2758205E-05
  -16.66667       27.77778      1.9234656E-05   1.987734      7.7893083E-06
 -1.7586890E-05
  -16.66667       38.88889      1.6878696E-05   2.195812      9.8758992E-06
 -1.3687840E-05
  -16.66667       50.00000      1.4852356E-05   2.452670      1.1464996E-05
 -9.4417346E-06
  -5.555557      -50.00000      1.4969706E-05 -0.7416421     -1.1038067E-05
  1.0112031E-05
  -5.555557      -38.88889      1.6018934E-05 -0.9713876     -9.0371514E-06
  1.3226343E-05
  -5.555557      -27.77778      2.6769751E-05  -1.323308     -6.5577883E-06
  2.5954094E-05
  -5.555557      -16.66667      5.3595224E-05  -1.499602     -3.8124685E-06
  5.3459455E-05
  -5.555557      -5.555557      1.6402658E-04  -1.565999     -7.8694188E-07
  1.6402469E-04
  -5.555557       5.555557      1.6711578E-04   1.584686      2.3210825E-06
 -1.6709966E-04
  -5.555557       16.66666      5.5052555E-05   1.666969      5.2864061E-06
 -5.4798154E-05
  -5.555557       27.77778      2.7716245E-05   1.860341      7.9134334E-06
 -2.6562526E-05
  -5.555557       38.88889      1.6865395E-05   2.222113      1.0224381E-05
 -1.3412813E-05
  -5.555557       50.00000      1.5644191E-05   2.446561      1.2015263E-05
 -1.0018692E-05
   5.555557      -50.00000      1.4968720E-05 -0.7415839     -1.1037929E-05
  1.0110723E-05
   5.555557      -38.88889      1.6013988E-05 -0.9711740     -9.0371859E-06
  1.3220329E-05
   5.555557      -27.77778      2.6744961E-05  -1.323097     -6.5571780E-06
  2.5928679E-05
   5.555557      -16.66667      5.3490861E-05  -1.499466     -3.8122960E-06
  5.3354837E-05
   5.555557      -5.555557      1.6380547E-04  -1.565997     -7.8621048E-07
  1.6380358E-04
   5.555557       5.555557      1.6766637E-04   1.584641      2.3212006E-06
 -1.6765030E-04
   5.555557       16.66666      5.5171451E-05   1.666782      5.2875498E-06
 -5.4917491E-05
   5.555557       27.77778      2.7743014E-05   1.860077      7.9140500E-06
 -2.6590273E-05
   5.555557       38.88889      1.6866266E-05   2.222114      1.0224922E-05
 -1.3413498E-05
   5.555557       50.00000      1.5645564E-05   2.446490      1.2015603E-05
 -1.0020429E-05
   16.66666      -50.00000      1.4242032E-05 -0.7379154     -1.0537289E-05
  9.5812848E-06
   16.66666      -38.88889      1.6149752E-05 -0.9987385     -8.7428843E-06
  1.3578529E-05
   16.66666      -27.77778      1.8353017E-05  -1.209315     -6.4907344E-06
  1.7166934E-05
   16.66666      -16.66667      1.2436757E-05  -1.260816     -3.7937045E-06
  1.1844017E-05
   16.66666      -5.555557      1.7181668E-05  -1.525464     -7.7861614E-07
  1.7164017E-05
   16.66666       5.555557      1.9065126E-05   1.689316      2.2543072E-06
 -1.8931380E-05
   16.66666       16.66666      1.3863431E-05   1.956008      5.2092532E-06
 -1.2847506E-05
   16.66666       27.77778      1.9274066E-05   1.986901      7.7905852E-06
 -1.7629420E-05
   16.66666       38.88889      1.6894081E-05   2.195220      9.8767805E-06
 -1.3706172E-05
   16.66666       50.00000      1.4857504E-05   2.452375      1.1466190E-05
 -9.4483812E-06
   27.77778      -50.00000      1.2586776E-05 -0.6337389     -1.0142665E-05
  7.4534082E-06
   27.77778      -38.88889      1.2749557E-05 -0.8361869     -8.5459942E-06
  9.4613515E-06
   27.77778      -27.77778      1.1308240E-05 -0.9814560     -6.2852632E-06
  9.4006245E-06
   27.77778      -16.66667      1.0824136E-05  -1.228454     -3.6336035E-06
  1.0196020E-05
   27.77778      -5.555557      4.9317882E-06  -1.414437     -7.6799358E-07
  4.8716242E-06
   27.77778       5.555557      6.0212237E-06   1.931762      2.1265632E-06
 -5.6331928E-06
   27.77778       16.66666      1.1767384E-05   2.003543      4.9348350E-06
 -1.0682636E-05
   27.77778       27.77778      1.2178198E-05   2.231554      7.4739414E-06
 -9.6150252E-06
   27.77778       38.88889      1.3444591E-05   2.363571      9.5766245E-06
 -9.4363804E-06
   27.77778       50.00000      1.3149301E-05   2.558420      1.0975980E-05
 -7.2409921E-06
   38.88889      -50.00000      1.0915869E-05 -0.4675681     -9.7442362E-06
  4.9199652E-06
   38.88889      -38.88889      1.0327325E-05 -0.6965754     -7.9215115E-06
  6.6259563E-06
   38.88889      -27.77778      9.0096883E-06 -0.8484264     -5.9568865E-06
  6.7594369E-06
   38.88889      -16.66667      6.7105393E-06  -1.035653     -3.4221346E-06
  5.7723769E-06
   38.88889      -5.555557      1.9511504E-06  -1.158822     -7.8127806E-07
  1.7879016E-06
   38.88889       5.555557      2.8198126E-06   2.344589      1.9706342E-06
 -2.0169143E-06
   38.88889       16.66666      7.4723202E-06   2.226760      4.5575430E-06
 -5.9215176E-06
   38.88889       27.77778      9.7080929E-06   2.374302      6.9878292E-06
 -6.7392366E-06
   38.88889       38.88889      1.0917600E-05   2.508675      8.8029146E-06
 -6.4577616E-06
   38.88889       50.00000      1.1416733E-05   2.725246      1.0441433E-05
 -4.6171717E-06
   50.00000      -50.00000      9.2122191E-06 -0.3183113     -8.7494454E-06
  2.8830846E-06
   50.00000      -38.88889      8.4358826E-06 -0.4752038     -7.5011822E-06
  3.8595822E-06
   50.00000      -27.77778      6.8706986E-06 -0.6549538     -5.4489865E-06
  4.1850981E-06
   50.00000      -16.66667      4.5486540E-06 -0.7897234     -3.2024423E-06
  3.2302655E-06
   50.00000      -5.555557      1.4024540E-06 -0.9720395     -7.9044560E-07
  1.1584788E-06
   50.00000       5.555557      2.0734262E-06   2.594562      1.7708571E-06
 -1.0784997E-06
   50.00000       16.66666      5.1734933E-06   2.496012      4.1323306E-06
 -3.1126960E-06
   50.00000       27.77778      7.4372697E-06   2.577124      6.2835466E-06
 -3.9786964E-06
   50.00000       38.88889      8.9377618E-06   2.732129      8.1989174E-06
 -3.5582784E-06
   50.00000       50.00000      9.6118529E-06   2.877687      9.2790769E-06
 -2.5072775E-06
           1           2          12          11
           2           3          13          12
           3           4          14          13
           4           5          15          14
           5           6          16          15
           6           7          17          16
           7           8          18          17
           8           9          19          18
           9          10          20          19
          11          12          22          21
          12          13          23          22
          13          14          24          23
          14          15          25          24
          15          16          26          25
          16          17          27          26
          17          18          28          27
          18          19          29          28
          19          20          30          29
          21          22          32          31
          22          23          33          32
          23          24          34          33
          24          25          35          34
          25          26          36          35
          26          27          37          36
          27          28          38          37
          28          29          39          38
          29          30          40          39
          31          32          42          41
          32          33          43          42
          33          34          44          43
          34          35          45          44
          35          36          46          45
          36          37          47          46
          37          38          48          47
          38          39          49          48
          39          40          50          49
          41          42          52          51
          42          43          53          52
          43          44          54          53
          44          45          55          54
          45          46          56          55
          46          47          57          56
          47          48          58          57
          48          49          59          58
          49          50          60          59
          51          52          62          61
          52          53          63          62
          53          54          64          63
          54          55          65          64
          55          56          66          65
          56          57          67          66
          57          58          68          67
          58          59          69          68
          59          60          70          69
          61          62          72          71
          62          63          73          72
          63          64          74          73
          64          65          75          74
          65          66          76          75
          66          67          77          76
          67          68          78          77
          68          69          79          78
          69          70          80          79
          71          72          82          81
          72          73          83          82
          73          74          84          83
          74          75          85          84
          75          76          86          85
          76          77          87          86
          77          78          88          87
          78          79          89          88
          79          80          90          89
          81          82          92          91
          82          83          93          92
          83          84          94          93
          84          85          95          94
          85          86          96          95
          86          87          97          96
          87          88          98          97
          88          89          99          98
          89          90         100          99
