 VARIABLES="X" "Y" "abs(eta) (m)" "angle(phi) (rad)" "PRE1" "PRE2"
ZONE N=    100 ,E =      81 ,F=FEPOINT,ET=QUADRILATERAL
  -50.00000      -50.00000      1.4493873E-04  -1.388685     -2.6249330E-05
  1.4254196E-04
  -50.00000      -38.88889      1.3131132E-04  -2.150925      7.1975912E-05
  1.0982774E-04
  -50.00000      -27.77778      1.1101718E-04  -2.784518      1.0401459E-04
  3.8804370E-05
  -50.00000      -16.66667      7.5525619E-05   3.030079      7.5056516E-05
 -8.4046669E-06
  -50.00000      -5.555557      2.7306300E-05   2.736048      2.5091425E-05
 -1.0772855E-05
  -50.00000       5.555557      2.7430749E-05 -0.2364587     -2.6667452E-05
  6.4259630E-06
  -50.00000       16.66666      7.5742842E-05 -5.1146265E-02 -7.5643795E-05
  3.8722746E-06
  -50.00000       27.77778      1.1145935E-04  0.3965540     -1.0280982E-04
 -4.3050284E-05
  -50.00000       38.88889      1.3203452E-04   1.020998     -6.8990099E-05
 -1.1257655E-04
  -50.00000       50.00000      1.4578382E-04   1.776019      2.9708573E-05
 -1.4272465E-04
  -38.88889      -50.00000      1.6891914E-04  -2.147525      9.2108945E-05
  1.4159667E-04
  -38.88889      -38.88889      1.6964469E-04  -3.001041      1.6797180E-04
  2.3765404E-05
  -38.88889      -27.77778      1.5001286E-04   2.555451      1.2497288E-04
 -8.2979743E-05
  -38.88889      -16.66667      1.1065450E-04   2.008396      4.6891662E-05
 -1.0022770E-04
  -38.88889      -5.555557      4.1038005E-05   1.675379      4.2840607E-06
 -4.0813782E-05
  -38.88889       5.555557      4.1149677E-05  -1.350720     -8.9831392E-06
  4.0157182E-05
  -38.88889       16.66666      1.1068917E-04  -1.090752     -5.1118343E-05
  9.8178447E-05
  -38.88889       27.77778      1.5008661E-04 -0.5551997     -1.2754287E-04
  7.9112608E-05
  -38.88889       38.88889      1.6998335E-04  0.1668851     -1.6762177E-04
 -2.8236202E-05
  -38.88889       50.00000      1.6965400E-04   1.017586     -8.9139845E-05
 -1.4434877E-04
  -27.77778      -50.00000      1.9997050E-04  -2.775715      1.8673450E-04
  7.1543182E-05
  -27.77778      -38.88889      2.1001774E-04   2.559873      1.7547379E-04
 -1.1539671E-04
  -27.77778      -27.77778      2.0507147E-04   1.721640      3.0816544E-05
 -2.0274281E-04
  -27.77778      -16.66667      1.6687615E-04   1.056809     -8.2045175E-05
 -1.4531428E-04
  -27.77778      -5.555557      6.6805966E-05  0.6413295     -5.3531694E-05
 -3.9967421E-05
  -27.77778       5.555557      6.7635418E-05  -2.422440      5.0886476E-05
  4.4554639E-05
  -27.77778       16.66666      1.6737652E-04  -2.055282      7.7956203E-05
  1.4811390E-04
  -27.77778       27.77778      2.0520516E-04  -1.396953     -3.5494206E-05
  2.0211215E-04
  -27.77778       38.88889      2.1009761E-04 -0.5596721     -1.7804287E-04
  1.1154257E-04
  -27.77778       50.00000      2.0043465E-04  0.3876951     -1.8555897E-04
 -7.5775431E-05
  -16.66667      -50.00000      2.2668591E-04   3.050206      2.2573998E-04
 -2.0687223E-05
  -16.66667      -38.88889      2.5816041E-04   2.020520      1.1222666E-04
 -2.3249080E-04
  -16.66667      -27.77778      2.7827316E-04   1.062784     -1.3536353E-04
 -2.4313097E-04
  -16.66667      -16.66667      2.5899167E-04  0.2026447     -2.5369212E-04
 -5.2124815E-05
  -16.66667      -5.555557      1.3611068E-04 -0.4006003     -1.2533439E-04
  5.3079246E-05
  -16.66667       5.555557      1.3777324E-04   2.789886      1.2933961E-04
 -4.7462941E-05
  -16.66667       16.66666      2.6020518E-04  -2.917318      2.5368854E-04
  5.7869376E-05
  -16.66667       27.77778      2.7879185E-04  -2.061299      1.3133039E-04
  2.4592117E-04
  -16.66667       38.88889      2.5823485E-04  -1.102990     -1.1644568E-04
  2.3049000E-04
  -16.66667       50.00000      2.2695902E-04 -7.1378574E-02 -2.2638110E-04
  1.6186259E-05
  -5.555557      -50.00000      2.4536741E-04   2.811329      2.3210702E-04
 -7.9570687E-05
  -5.555557      -38.88889      2.8712949E-04   1.724922      4.4078955E-05
 -2.8372591E-04
  -5.555557      -27.77778      3.3546693E-04  0.6728839     -2.6234437E-04
 -2.0907770E-04
  -5.555557      -16.66667      4.0977573E-04 -0.3836928     -3.7998037E-04
  1.5339845E-04
  -5.555557      -5.555557      6.5539154E-04  -1.298464     -1.7628612E-04
  6.3123787E-04
  -5.555557       5.555557      6.6016434E-04   1.856723      1.8619707E-04
 -6.3336216E-04
  -5.555557       16.66666      4.1171035E-04   2.773073      3.8406876E-04
 -1.4831252E-04
  -5.555557       27.77778      3.3627386E-04  -2.453734      2.5980760E-04
  2.1349503E-04
  -5.555557       38.88889      2.8727573E-04  -1.400340     -4.8731275E-05
  2.8311237E-04
  -5.555557       50.00000      2.4553263E-04 -0.3115521     -2.3371242E-04
  7.5264688E-05
   5.555557      -50.00000      2.4536502E-04   2.811286      2.3210130E-04
 -7.9580066E-05
   5.555557      -38.88889      2.8714191E-04   1.724879      4.4068736E-05
 -2.8374005E-04
   5.555557      -27.77778      3.3548544E-04  0.6729264     -2.6234999E-04
 -2.0910038E-04
   5.555557      -16.66667      4.0970545E-04 -0.3833371     -3.7996972E-04
  1.5323701E-04
   5.555557      -5.555557      6.5505633E-04  -1.298370     -1.7625533E-04
  6.3089846E-04
   5.555557       5.555557      6.6139275E-04   1.856239      1.8623671E-04
 -6.3463079E-04
   5.555557       16.66666      4.1183273E-04   2.772539      3.8410371E-04
 -1.4856154E-04
   5.555557       27.77778      3.3626659E-04  -2.453870      2.5983094E-04
  2.1345513E-04
   5.555557       38.88889      2.8728088E-04  -1.400363     -4.8725560E-05
  2.8311857E-04
   5.555557       50.00000      2.4553732E-04 -0.3115616     -2.3371619E-04
  7.5268334E-05
   16.66666      -50.00000      2.2668696E-04   3.050075      2.2573830E-04
 -2.0717029E-05
   16.66666      -38.88889      2.5818052E-04   2.020387      1.1220453E-04
 -2.3252382E-04
   16.66666      -27.77778      2.7832741E-04   1.062786     -1.3538964E-04
 -2.4317851E-04
   16.66666      -16.66667      2.5901789E-04  0.2033368     -2.5368165E-04
 -5.2305695E-05
   16.66666      -5.555557      1.3583551E-04 -0.3968668     -1.2527790E-04
  5.2504576E-05
   16.66666       5.555557      1.3808005E-04   2.785618      1.2942344E-04
 -4.8121474E-05
   16.66666       16.66666      2.6022727E-04  -2.918357      2.5377003E-04
  5.7610727E-05
   16.66666       27.77778      2.7879269E-04  -2.061532      1.3138801E-04
  2.4589137E-04
   16.66666       38.88889      2.5825258E-04  -1.103030     -1.1644442E-04
  2.3051049E-04
   16.66666       50.00000      2.2698149E-04 -7.1411230E-02 -2.2640298E-04
  1.6195254E-05
   27.77778      -50.00000      1.9994799E-04  -2.775908      1.8672727E-04
  7.1499126E-05
   27.77778      -38.88889      2.1001001E-04   2.559622      1.7543843E-04
 -1.1543640E-04
   27.77778      -27.77778      2.0512442E-04   1.721451      3.0786250E-05
 -2.0280098E-04
   27.77778      -16.66667      1.6694443E-04   1.056951     -8.2058068E-05
 -1.4538541E-04
   27.77778      -5.555557      6.6868539E-05  0.6433653     -5.3500276E-05
 -4.0113857E-05
   27.77778       5.555557      6.7573383E-05  -2.424874      5.0947994E-05
  4.4389912E-05
   27.77778       16.66666      1.6735948E-04  -2.055787      7.8022982E-05
  1.4805948E-04
   27.77778       27.77778      2.0521773E-04  -1.397070     -3.5472662E-05
  2.0212869E-04
   27.77778       38.88889      2.1011324E-04 -0.5597087     -1.7805203E-04
  1.1155739E-04
   27.77778       50.00000      2.0046250E-04  0.3876287     -1.8558979E-04
 -7.5773642E-05
   38.88889      -50.00000      1.6888806E-04  -2.147729      9.2120921E-05
  1.4155181E-04
   38.88889      -38.88889      1.6961216E-04  -3.001360      1.6794718E-04
  2.3707244E-05
   38.88889      -27.77778      1.5000133E-04   2.555033      1.2492860E-04
 -8.3025552E-05
   38.88889      -16.66667      1.1067443E-04   2.007941      4.6854559E-05
 -1.0026705E-04
   38.88889      -5.555557      4.1071835E-05   1.674870      4.2667725E-06
 -4.0849605E-05
   38.88889       5.555557      4.1128042E-05  -1.350621     -8.9823970E-06
  4.0135175E-05
   38.88889       16.66666      1.1070684E-04  -1.090709     -5.1130697E-05
  9.8191937E-05
   38.88889       27.77778      1.5010707E-04 -0.5551880     -1.2756119E-04
  7.9121899E-05
   38.88889       38.88889      1.7001765E-04  0.1668320     -1.6765710E-04
 -2.8232986E-05
   38.88889       50.00000      1.6969036E-04   1.017467     -8.9176116E-05
 -1.4436911E-04
   50.00000      -50.00000      1.4490286E-04  -1.388847     -2.6219794E-05
  1.4251092E-04
   50.00000      -38.88889      1.3126960E-04  -2.151203      7.1983523E-05
  1.0977285E-04
   50.00000      -27.77778      1.1097662E-04  -2.784940      1.0399296E-04
  3.8746301E-05
   50.00000      -16.66667      7.5507320E-05   3.029374      7.5032389E-05
 -8.4555386E-06
   50.00000      -5.555557      2.7280010E-05   2.734351      2.5048970E-05
 -1.0805002E-05
   50.00000       5.555557      2.7465345E-05 -0.2354379     -2.6707639E-05
  6.4068095E-06
   50.00000       16.66666      7.5786993E-05 -5.0988778E-02 -7.5688498E-05
  3.8626122E-06
   50.00000       27.77778      1.1150645E-04  0.3965167     -1.0285487E-04
 -4.3064651E-05
   50.00000       38.88889      1.3208135E-04   1.020853     -6.9030815E-05
 -1.1260653E-04
   50.00000       50.00000      1.4582026E-04   1.775834      2.9689620E-05
 -1.4276580E-04
           1           2          12          11
           2           3          13          12
           3           4          14          13
           4           5          15          14
           5           6          16          15
           6           7          17          16
           7           8          18          17
           8           9          19          18
           9          10          20          19
          11          12          22          21
          12          13          23          22
          13          14          24          23
          14          15          25          24
          15          16          26          25
          16          17          27          26
          17          18          28          27
          18          19          29          28
          19          20          30          29
          21          22          32          31
          22          23          33          32
          23          24          34          33
          24          25          35          34
          25          26          36          35
          26          27          37          36
          27          28          38          37
          28          29          39          38
          29          30          40          39
          31          32          42          41
          32          33          43          42
          33          34          44          43
          34          35          45          44
          35          36          46          45
          36          37          47          46
          37          38          48          47
          38          39          49          48
          39          40          50          49
          41          42          52          51
          42          43          53          52
          43          44          54          53
          44          45          55          54
          45          46          56          55
          46          47          57          56
          47          48          58          57
          48          49          59          58
          49          50          60          59
          51          52          62          61
          52          53          63          62
          53          54          64          63
          54          55          65          64
          55          56          66          65
          56          57          67          66
          57          58          68          67
          58          59          69          68
          59          60          70          69
          61          62          72          71
          62          63          73          72
          63          64          74          73
          64          65          75          74
          65          66          76          75
          66          67          77          76
          67          68          78          77
          68          69          79          78
          69          70          80          79
          71          72          82          81
          72          73          83          82
          73          74          84          83
          74          75          85          84
          75          76          86          85
          76          77          87          86
          77          78          88          87
          78          79          89          88
          79          80          90          89
          81          82          92          91
          82          83          93          92
          83          84          94          93
          84          85          95          94
          85          86          96          95
          86          87          97          96
          87          88          98          97
          88          89          99          98
          89          90         100          99
