 VARIABLES="X" "Y" "abs(eta) (m)" "angle(phi) (rad)" "PRE1" "PRE2"
ZONE N=    100 ,E =      81 ,F=FEPOINT,ET=QUADRILATERAL
  -50.00000      -50.00000      4.7013731E-04   1.521592     -2.3123490E-05
 -4.6956830E-04
  -50.00000      -38.88889      4.3157084E-04   1.074024     -2.0568269E-04
 -3.7940481E-04
  -50.00000      -27.77778      4.1933169E-04  0.6505393     -3.3368627E-04
 -2.5395383E-04
  -50.00000      -16.66667      4.2718937E-04  0.3273256     -4.0450800E-04
 -1.3734642E-04
  -50.00000      -5.555557      4.3840701E-04  0.1529499     -4.3328901E-04
 -6.6793153E-05
  -50.00000       5.555557      4.3840861E-04  0.1529295     -4.3329198E-04
 -6.6784574E-05
  -50.00000       16.66666      4.2719272E-04  0.3272650     -4.0451949E-04
 -1.3732298E-04
  -50.00000       27.77778      4.1933201E-04  0.6504501     -3.3370915E-04
 -2.5392426E-04
  -50.00000       38.88889      4.3156487E-04   1.073923     -2.0571821E-04
 -3.7937876E-04
  -50.00000       50.00000      4.7012596E-04   1.521492     -2.3169749E-05
 -4.6955465E-04
  -38.88889      -50.00000      4.3075060E-04   1.074268     -2.0519942E-04
 -3.7873379E-04
  -38.88889      -38.88889      4.2009432E-04  0.4930097     -3.7006632E-04
 -1.9882194E-04
  -38.88889      -27.77778      4.5330511E-04 -2.4575032E-02 -4.5316824E-04
  1.1138866E-05
  -38.88889      -16.66667      5.0666381E-04 -0.3943111     -4.6778313E-04
  1.9464619E-04
  -38.88889      -5.555557      5.4487237E-04 -0.5838355     -4.5461670E-04
  3.0034900E-04
  -38.88889       5.555557      5.4487819E-04 -0.5838583     -4.5461475E-04
  3.0036256E-04
  -38.88889       16.66666      5.0667621E-04 -0.3943777     -4.6778165E-04
  1.9468210E-04
  -38.88889       27.77778      4.5331608E-04 -2.4679668E-02 -4.5317804E-04
  1.1186555E-05
  -38.88889       38.88889      4.2009700E-04  0.4928795     -3.7009455E-04
 -1.9877503E-04
  -38.88889       50.00000      4.3074283E-04   1.074136     -2.0524539E-04
 -3.7870003E-04
  -27.77778      -50.00000      4.1740233E-04  0.6504751     -3.3216720E-04
 -2.5276406E-04
  -27.77778      -38.88889      4.5210915E-04 -2.5252463E-02 -4.5196500E-04
  1.1415656E-05
  -27.77778      -27.77778      5.4333755E-04 -0.5851217     -4.5295057E-04
  3.0008578E-04
  -27.77778      -16.66667      6.5248250E-04 -0.9858637     -3.6026380E-04
  5.4400682E-04
  -27.77778      -5.555557      7.3126302E-04  -1.208437     -2.5921888E-04
  6.8377715E-04
  -27.77778       5.555557      7.3127588E-04  -1.208465     -2.5920419E-04
  6.8379648E-04
  -27.77778       16.66666      6.5251085E-04 -0.9859372     -3.6023947E-04
  5.4405694E-04
  -27.77778       27.77778      5.4336508E-04 -0.5852362     -4.5293916E-04
  3.0015287E-04
  -27.77778       38.88889      4.5212443E-04 -2.5399212E-02 -4.5197859E-04
  1.1482369E-05
  -27.77778       50.00000      4.1740213E-04  0.6503153     -3.3220739E-04
 -2.5271086E-04
  -16.66667      -50.00000      4.2388975E-04  0.3262630     -4.0152817E-04
 -1.3585897E-04
  -16.66667      -38.88889      5.0390564E-04 -0.3964240     -4.6482659E-04
  1.9456913E-04
  -16.66667      -27.77778      6.5055810E-04 -0.9875764     -3.5827176E-04
  5.4301677E-04
  -16.66667      -16.66667      8.3933806E-04  -1.458947     -9.3683899E-05
  8.3409331E-04
  -16.66667      -5.555557      1.0203756E-03  -1.769542      2.0146302E-04
  1.0002895E-03
  -16.66667       5.555557      1.0204177E-03  -1.769582      2.0151108E-04
  1.0003228E-03
  -16.66667       16.66666      8.3939865E-04  -1.459045     -9.3609146E-05
  8.3416270E-04
  -16.66667       27.77778      6.5060449E-04 -0.9876999     -3.5823020E-04
  5.4309971E-04
  -16.66667       38.88889      5.0393416E-04 -0.3965789     -4.6482275E-04
  1.9465215E-04
  -16.66667       50.00000      4.2389895E-04  0.3260820     -4.0156147E-04
 -1.3578922E-04
  -5.555557      -50.00000      4.3385520E-04  0.1508889     -4.2892568E-04
 -6.5215791E-05
  -5.555557      -38.88889      5.4028665E-04 -0.5877869     -4.4961029E-04
  2.9960013E-04
  -5.555557      -27.77778      7.2650349E-04  -1.212179     -2.5498797E-04
  6.8028556E-04
  -5.555557      -16.66667      1.0154778E-03  -1.773047      2.0398364E-04
  9.9477929E-04
  -5.555557      -5.555557      1.7487558E-03  -2.397497      1.2865610E-03
  1.1844441E-03
  -5.555557       5.555557      1.7490084E-03  -2.397569      1.2868326E-03
  1.1845219E-03
  -5.555557       16.66666      1.0156026E-03  -1.773167      2.0412845E-04
  9.9487696E-04
  -5.555557       27.77778      7.2656618E-04  -1.212319     -2.5491454E-04
  6.8038004E-04
  -5.555557       38.88889      5.4032571E-04 -0.5879470     -4.4959484E-04
  2.9969375E-04
  -5.555557       50.00000      4.3386937E-04  0.1507043     -4.2895172E-04
 -6.5138760E-05
   5.555557      -50.00000      4.3271898E-04  0.1503460     -4.2783763E-04
 -6.4812732E-05
   5.555557      -38.88889      5.3876534E-04 -0.5891423     -4.4793898E-04
  2.9936398E-04
   5.555557      -27.77778      7.2414050E-04  -1.214098     -2.5285702E-04
  6.7855936E-04
   5.555557      -16.66667      1.0106344E-03  -1.776632      2.0655923E-04
  9.8930032E-04
   5.555557      -5.555557      1.7268850E-03  -2.413968      1.2895621E-03
  1.1485475E-03
   5.555557       5.555557      1.7271535E-03  -2.414036      1.2898406E-03
  1.1486387E-03
   5.555557       16.66666      1.0107572E-03  -1.776753      2.0670402E-04
  9.8939554E-04
   5.555557       27.77778      7.2420260E-04  -1.214239     -2.5278327E-04
  6.7865307E-04
   5.555557       38.88889      5.3880451E-04 -0.5893025     -4.4792355E-04
  2.9945746E-04
   5.555557       50.00000      4.3273301E-04  0.1501613     -4.2786344E-04
 -6.4735810E-05
   16.66666      -50.00000      4.2059296E-04  0.3251223     -3.9855880E-04
 -1.3434776E-04
   16.66666      -38.88889      4.9978413E-04 -0.3997051     -4.6038907E-04
  1.9448933E-04
   16.66666      -27.77778      6.4482191E-04 -0.9928558     -3.5226624E-04
  5.4009608E-04
   16.66666      -16.66667      8.2989456E-04  -1.466197     -8.6648077E-05
  8.2535879E-04
   16.66666      -5.555557      1.0058439E-03  -1.780300      2.0919013E-04
  9.8385033E-04
   16.66666       5.555557      1.0058841E-03  -1.780341      2.0923823E-04
  9.8388118E-04
   16.66666       16.66666      8.2995335E-04  -1.466295     -8.6573222E-05
  8.2542573E-04
   16.66666       27.77778      6.4486824E-04 -0.9929792     -3.5222492E-04
  5.4017839E-04
   16.66666       38.88889      4.9981265E-04 -0.3998603     -4.6038514E-04
  1.9457188E-04
   16.66666       50.00000      4.2060213E-04  0.3249406     -3.9859189E-04
 -1.3427826E-04
   27.77778      -50.00000      4.1257724E-04  0.6502218     -3.2839066E-04
 -2.4975897E-04
   27.77778      -38.88889      4.4614021E-04 -2.8802279E-02 -4.4595517E-04
  1.2848079E-05
   27.77778      -27.77778      5.3573062E-04 -0.5918999     -4.4459326E-04
  2.9890487E-04
   27.77778      -16.66667      6.4292288E-04 -0.9946625     -3.5025534E-04
  5.3913915E-04
   27.77778      -5.555557      7.1944355E-04  -1.218031     -2.4856327E-04
  6.7514094E-04
   27.77778       5.555557      7.1945577E-04  -1.218059     -2.4854855E-04
  6.7515939E-04
   27.77778       16.66666      6.4295053E-04 -0.9947360     -3.5023081E-04
  5.3918804E-04
   27.77778       27.77778      5.3575827E-04 -0.5920146     -4.4458196E-04
  2.9897125E-04
   27.77778       38.88889      4.4615523E-04 -2.8949657E-02 -4.4596830E-04
  1.2914237E-05
   27.77778       50.00000      4.1257657E-04  0.6500615     -3.2843018E-04
 -2.4970592E-04
   38.88889      -50.00000      4.2500003E-04   1.075894     -2.0185183E-04
 -3.7400651E-04
   38.88889      -38.88889      4.1304633E-04  0.4917437     -3.6410484E-04
 -1.9502548E-04
   38.88889      -27.77778      4.4494862E-04 -2.9545086E-02 -4.4475443E-04
  1.3144133E-05
   38.88889      -16.66667      4.9704697E-04 -0.4019678     -4.5742880E-04
  1.9445970E-04
   38.88889      -5.555557      5.3422269E-04 -0.5933254     -4.4291656E-04
  2.9869523E-04
   38.88889       5.555557      5.3422817E-04 -0.5933483     -4.4291426E-04
  2.9870839E-04
   38.88889       16.66666      4.9705885E-04 -0.4020348     -4.5742671E-04
  1.9449501E-04
   38.88889       27.77778      4.4495985E-04 -2.9650468E-02 -4.4476427E-04
  1.3191335E-05
   38.88889       38.88889      4.1304869E-04  0.4916131     -3.6413240E-04
 -1.9497903E-04
   38.88889       50.00000      4.2499189E-04   1.075763     -2.0189687E-04
 -3.7397293E-04
   50.00000      -50.00000      4.6395225E-04   1.524632     -2.1410304E-05
 -4.6345798E-04
   50.00000      -38.88889      4.2417741E-04   1.076116     -2.0137821E-04
 -3.7332735E-04
   50.00000      -27.77778      4.1064646E-04  0.6500831     -3.2688834E-04
 -2.4854482E-04
   50.00000      -16.66667      4.1729884E-04  0.3239030     -3.9559949E-04
 -1.3281328E-04
   50.00000      -5.555557      4.2818050E-04  0.1480624     -4.2349569E-04
 -6.3166066E-05
   50.00000       5.555557      4.2818201E-04  0.1480417     -4.2349848E-04
 -6.3157517E-05
   50.00000       16.66666      4.1730210E-04  0.3238416     -3.9561072E-04
 -1.3279004E-04
   50.00000       27.77778      4.1064646E-04  0.6499932     -3.2691070E-04
 -2.4851543E-04
   50.00000       38.88889      4.2417116E-04   1.076014     -2.0141344E-04
 -3.7330121E-04
   50.00000       50.00000      4.6394058E-04   1.524533     -2.1455971E-05
 -4.6344419E-04
           1           2          12          11
           2           3          13          12
           3           4          14          13
           4           5          15          14
           5           6          16          15
           6           7          17          16
           7           8          18          17
           8           9          19          18
           9          10          20          19
          11          12          22          21
          12          13          23          22
          13          14          24          23
          14          15          25          24
          15          16          26          25
          16          17          27          26
          17          18          28          27
          18          19          29          28
          19          20          30          29
          21          22          32          31
          22          23          33          32
          23          24          34          33
          24          25          35          34
          25          26          36          35
          26          27          37          36
          27          28          38          37
          28          29          39          38
          29          30          40          39
          31          32          42          41
          32          33          43          42
          33          34          44          43
          34          35          45          44
          35          36          46          45
          36          37          47          46
          37          38          48          47
          38          39          49          48
          39          40          50          49
          41          42          52          51
          42          43          53          52
          43          44          54          53
          44          45          55          54
          45          46          56          55
          46          47          57          56
          47          48          58          57
          48          49          59          58
          49          50          60          59
          51          52          62          61
          52          53          63          62
          53          54          64          63
          54          55          65          64
          55          56          66          65
          56          57          67          66
          57          58          68          67
          58          59          69          68
          59          60          70          69
          61          62          72          71
          62          63          73          72
          63          64          74          73
          64          65          75          74
          65          66          76          75
          66          67          77          76
          67          68          78          77
          68          69          79          78
          69          70          80          79
          71          72          82          81
          72          73          83          82
          73          74          84          83
          74          75          85          84
          75          76          86          85
          76          77          87          86
          77          78          88          87
          78          79          89          88
          79          80          90          89
          81          82          92          91
          82          83          93          92
          83          84          94          93
          84          85          95          94
          85          86          96          95
          86          87          97          96
          87          88          98          97
          88          89          99          98
          89          90         100          99
