 VARIABLES="X" "Y" "abs(eta) (m)" "angle(phi) (rad)" "PRE1" "PRE2"
ZONE N=    100 ,E =      81 ,F=FEPOINT,ET=QUADRILATERAL
  -50.00000      -50.00000      2.3868674E-04  -2.719112      2.1770013E-04
  9.7867320E-05
  -50.00000      -38.88889      2.9506773E-04  -2.907529      2.8702183E-04
  6.8435664E-05
  -50.00000      -27.77778      3.4513226E-04  -3.046067      3.4355876E-04
  3.2918902E-05
  -50.00000      -16.66667      3.8286342E-04   3.139637      3.8286269E-04
 -7.4874220E-07
  -50.00000      -5.555557      4.0413096E-04   3.094822      4.0368902E-04
 -1.8894738E-05
  -50.00000       5.555557      4.0413335E-04   3.094816      4.0369129E-04
 -1.8896948E-05
  -50.00000       16.66666      3.8287029E-04   3.139620      3.8286953E-04
 -7.5526776E-07
  -50.00000       27.77778      3.4514224E-04  -3.046093      3.4356958E-04
  3.2910710E-05
  -50.00000       38.88889      2.9508016E-04  -2.907565      2.8703635E-04
  6.8428315E-05
  -50.00000       50.00000      2.3869982E-04  -2.719162      2.1771694E-04
  9.7861863E-05
  -38.88889      -50.00000      2.9506764E-04  -2.907529      2.8702174E-04
  6.8435649E-05
  -38.88889      -38.88889      3.6343190E-04  -3.094133      3.6302267E-04
  1.7241862E-05
  -38.88889      -27.77778      4.2679947E-04   3.046089      4.2485454E-04
 -4.0698989E-05
  -38.88889      -16.66667      4.7856107E-04   2.930788      4.6796713E-04
 -1.0013721E-04
  -38.88889      -5.555557      5.0949620E-04   2.864358      4.9004162E-04
 -1.3944735E-04
  -38.88889       5.555557      5.0949975E-04   2.864352      4.9004419E-04
 -1.3945129E-04
  -38.88889       16.66666      4.7857105E-04   2.930767      4.6797472E-04
 -1.0014944E-04
  -38.88889       27.77778      4.2681253E-04   3.046060      4.2486636E-04
 -4.0712617E-05
  -38.88889       38.88889      3.6344689E-04  -3.094172      3.6303833E-04
  1.7228534E-05
  -38.88889       50.00000      2.9508368E-04  -2.907576      2.8704049E-04
  6.8426081E-05
  -27.77778      -50.00000      3.4513234E-04  -3.046067      3.4355884E-04
  3.2918924E-05
  -27.77778      -38.88889      4.2679920E-04   3.046089      4.2485428E-04
 -4.0698971E-05
  -27.77778      -27.77778      5.0949270E-04   2.864364      4.9003912E-04
 -1.3944342E-04
  -27.77778      -16.66667      5.8175978E-04   2.744697      5.3653703E-04
 -2.2488323E-04
  -27.77778      -5.555557      6.3913065E-04   2.639173      5.6014681E-04
 -3.0777187E-04
  -27.77778       5.555557      6.3913869E-04   2.639159      5.6014961E-04
 -3.0778346E-04
  -27.77778       16.66666      5.8177573E-04   2.744667      5.3654483E-04
 -2.2490583E-04
  -27.77778       27.77778      5.0951011E-04   2.864334      4.9005169E-04
 -1.3946292E-04
  -27.77778       38.88889      4.2681786E-04   3.046048      4.2487119E-04
 -4.0718074E-05
  -27.77778       50.00000      3.4515015E-04  -3.046115      3.4357817E-04
  3.2904034E-05
  -16.66667      -50.00000      3.8286331E-04   3.139637      3.8286258E-04
 -7.4871986E-07
  -16.66667      -38.88889      4.7856109E-04   2.930789      4.6796715E-04
 -1.0013719E-04
  -16.66667      -27.77778      5.8175978E-04   2.744697      5.3653703E-04
 -2.2488328E-04
  -16.66667      -16.66667      7.1851816E-04   2.520285      5.8424001E-04
 -4.1824870E-04
  -16.66667      -5.555557      8.6832047E-04   2.348046      6.0897198E-04
 -6.1897782E-04
  -16.66667       5.555557      8.6834974E-04   2.348017      6.0897449E-04
 -6.1901641E-04
  -16.66667       16.66666      7.1854366E-04   2.520256      5.8424863E-04
 -4.1828040E-04
  -16.66667       27.77778      5.8178644E-04   2.744647      5.3655024E-04
 -2.2492063E-04
  -16.66667       38.88889      4.7858403E-04   2.930738      4.6798453E-04
 -1.0016565E-04
  -16.66667       50.00000      3.8288409E-04   3.139586      3.8288333E-04
 -7.6826137E-07
  -5.555557      -50.00000      4.0413087E-04   3.094822      4.0368893E-04
 -1.8894689E-05
  -5.555557      -38.88889      5.0949591E-04   2.864359      4.9004139E-04
 -1.3944721E-04
  -5.555557      -27.77778      6.3913071E-04   2.639173      5.6014693E-04
 -3.0777181E-04
  -5.555557      -16.66667      8.6832012E-04   2.348046      6.0897181E-04
 -6.1897753E-04
  -5.555557      -5.555557      1.5036459E-03   2.006062      6.3401478E-04
 -1.3634429E-03
  -5.555557       5.555557      1.5039275E-03   2.005977      6.3401769E-04
 -1.3637521E-03
  -5.555557       16.66666      8.6840976E-04   2.347958      6.0898025E-04
 -6.1909499E-04
  -5.555557       27.77778      6.3917041E-04   2.639104      5.6016055E-04
 -3.0782947E-04
  -5.555557       38.88889      5.0952099E-04   2.864316      4.9005967E-04
 -1.3947468E-04
  -5.555557       50.00000      4.0415316E-04   3.094775      4.0371032E-04
 -1.8914649E-05
   5.555557      -50.00000      4.0413329E-04   3.094816      4.0369126E-04
 -1.8896908E-05
   5.555557      -38.88889      5.0949969E-04   2.864352      4.9004419E-04
 -1.3945122E-04
   5.555557      -27.77778      6.3913857E-04   2.639159      5.6014961E-04
 -3.0778319E-04
   5.555557      -16.66667      8.6834934E-04   2.348017      6.0897449E-04
 -6.1901589E-04
   5.555557      -5.555557      1.5039276E-03   2.005978      6.3401792E-04
 -1.3637521E-03
   5.555557       5.555557      1.5042087E-03   2.005893      6.3402043E-04
 -1.3640608E-03
   5.555557       16.66666      8.6843938E-04   2.347929      6.0898298E-04
 -6.1913382E-04
   5.555557       27.77778      6.3917792E-04   2.639090      5.6016282E-04
 -3.0784085E-04
   5.555557       38.88889      5.0952437E-04   2.864310      4.9006206E-04
 -1.3947864E-04
   5.555557       50.00000      4.0415546E-04   3.094770      4.0371250E-04
 -1.8916804E-05
   16.66666      -50.00000      3.8287020E-04   3.139620      3.8286945E-04
 -7.5528328E-07
   16.66666      -38.88889      4.7857099E-04   2.930767      4.6797466E-04
 -1.0014942E-04
   16.66666      -27.77778      5.8177556E-04   2.744667      5.3654471E-04
 -2.2490573E-04
   16.66666      -16.66667      7.1854366E-04   2.520256      5.8424874E-04
 -4.1828031E-04
   16.66666      -5.555557      8.6840929E-04   2.347959      6.0898025E-04
 -6.1909429E-04
   16.66666       5.555557      8.6843933E-04   2.347929      6.0898310E-04
 -6.1913359E-04
   16.66666       16.66666      7.1856863E-04   2.520227      5.8425684E-04
 -4.1831183E-04
   16.66666       27.77778      5.8180263E-04   2.744617      5.3655839E-04
 -2.2494311E-04
   16.66666       38.88889      4.7859378E-04   2.930716      4.6799189E-04
 -1.0017786E-04
   16.66666       50.00000      3.8289087E-04   3.139569      3.8289008E-04
 -7.7479791E-07
   27.77778      -50.00000      3.4514235E-04  -3.046094      3.4356970E-04
  3.2910644E-05
   27.77778      -38.88889      4.2681242E-04   3.046060      4.2486624E-04
 -4.0712592E-05
   27.77778      -27.77778      5.0951063E-04   2.864334      4.9005216E-04
 -1.3946307E-04
   27.77778      -16.66667      5.8178633E-04   2.744647      5.3655019E-04
 -2.2492051E-04
   27.77778      -5.555557      6.3916988E-04   2.639104      5.6016009E-04
 -3.0782924E-04
   27.77778       5.555557      6.3917798E-04   2.639091      5.6016294E-04
 -3.0784082E-04
   27.77778       16.66666      5.8180257E-04   2.744617      5.3655833E-04
 -2.2494304E-04
   27.77778       27.77778      5.0952792E-04   2.864304      4.9006450E-04
 -1.3948284E-04
   27.77778       38.88889      4.2683116E-04   3.046019      4.2488324E-04
 -4.0731684E-05
   27.77778       50.00000      3.4516040E-04  -3.046142      3.4358923E-04
  3.2895874E-05
   38.88889      -50.00000      2.9508001E-04  -2.907565      2.8703621E-04
  6.8428228E-05
   38.88889      -38.88889      3.6344677E-04  -3.094172      3.6303818E-04
  1.7228591E-05
   38.88889      -27.77778      4.2681786E-04   3.046048      4.2487119E-04
 -4.0718060E-05
   38.88889      -16.66667      4.7858409E-04   2.930738      4.6798459E-04
 -1.0016561E-04
   38.88889      -5.555557      5.0952123E-04   2.864316      4.9005979E-04
 -1.3947494E-04
   38.88889       5.555557      5.0952443E-04   2.864310      4.9006200E-04
 -1.3947893E-04
   38.88889       16.66666      4.7859401E-04   2.930716      4.6799213E-04
 -1.0017785E-04
   38.88889       27.77778      4.2683107E-04   3.046019      4.2488315E-04
 -4.0731684E-05
   38.88889       38.88889      3.6346182E-04  -3.094210      3.6305390E-04
  1.7215303E-05
   38.88889       50.00000      2.9509622E-04  -2.907611      2.8705515E-04
  6.8418754E-05
   50.00000      -50.00000      2.3869994E-04  -2.719162      2.1771705E-04
  9.7861863E-05
   50.00000      -38.88889      2.9508362E-04  -2.907575      2.8704043E-04
  6.8426176E-05
   50.00000      -27.77778      3.4515045E-04  -3.046115      3.4357843E-04
  3.2904132E-05
   50.00000      -16.66667      3.8288379E-04   3.139586      3.8288304E-04
 -7.6829252E-07
   50.00000      -5.555557      4.0415314E-04   3.094775      4.0371029E-04
 -1.8914607E-05
   50.00000       5.555557      4.0415558E-04   3.094770      4.0371262E-04
 -1.8916799E-05
   50.00000       16.66666      3.8289075E-04   3.139569      3.8288996E-04
 -7.7479734E-07
   50.00000       27.77778      3.4516034E-04  -3.046142      3.4358920E-04
  3.2895783E-05
   50.00000       38.88889      2.9509614E-04  -2.907611      2.8705504E-04
  6.8418864E-05
   50.00000       50.00000      2.3871286E-04  -2.719212      2.1773369E-04
  9.7856377E-05
           1           2          12          11
           2           3          13          12
           3           4          14          13
           4           5          15          14
           5           6          16          15
           6           7          17          16
           7           8          18          17
           8           9          19          18
           9          10          20          19
          11          12          22          21
          12          13          23          22
          13          14          24          23
          14          15          25          24
          15          16          26          25
          16          17          27          26
          17          18          28          27
          18          19          29          28
          19          20          30          29
          21          22          32          31
          22          23          33          32
          23          24          34          33
          24          25          35          34
          25          26          36          35
          26          27          37          36
          27          28          38          37
          28          29          39          38
          29          30          40          39
          31          32          42          41
          32          33          43          42
          33          34          44          43
          34          35          45          44
          35          36          46          45
          36          37          47          46
          37          38          48          47
          38          39          49          48
          39          40          50          49
          41          42          52          51
          42          43          53          52
          43          44          54          53
          44          45          55          54
          45          46          56          55
          46          47          57          56
          47          48          58          57
          48          49          59          58
          49          50          60          59
          51          52          62          61
          52          53          63          62
          53          54          64          63
          54          55          65          64
          55          56          66          65
          56          57          67          66
          57          58          68          67
          58          59          69          68
          59          60          70          69
          61          62          72          71
          62          63          73          72
          63          64          74          73
          64          65          75          74
          65          66          76          75
          66          67          77          76
          67          68          78          77
          68          69          79          78
          69          70          80          79
          71          72          82          81
          72          73          83          82
          73          74          84          83
          74          75          85          84
          75          76          86          85
          76          77          87          86
          77          78          88          87
          78          79          89          88
          79          80          90          89
          81          82          92          91
          82          83          93          92
          83          84          94          93
          84          85          95          94
          85          86          96          95
          86          87          97          96
          87          88          98          97
          88          89          99          98
          89          90         100          99
