 VARIABLES="Time (s)"
"AddedMass    1" "IRF    1"
"AddedMass    2" "IRF    2"
"AddedMass    3" "IRF    3"
"AddedMass    4" "IRF    4"
"AddedMass    5" "IRF    5"
"AddedMass    6" "IRF    6"
Zone t="DoF    1",I=   100,F=POINT
  0.0000000E+00  0.3296732E+02  0.5600830E-03  0.2360236E-01  0.2387445E-07  0.1068037E-02  0.1929400E-05 -0.1987723E+00 -0.6444071E-07  0.2459809E+03  0.4180019E-02 -0.4144268E-01 -0.7079982E-06
  0.1000000E+00  0.3296732E+02  0.5577874E-03  0.2360236E-01  0.2377435E-07  0.1068037E-02  0.1922055E-05 -0.1987723E+00 -0.6416050E-07  0.2459809E+03  0.4162887E-02 -0.4144268E-01 -0.7050970E-06
  0.2000000E+00  0.3296732E+02  0.5509206E-03  0.2360236E-01  0.2347491E-07  0.1068037E-02  0.1900078E-05 -0.1987723E+00 -0.6332239E-07  0.2459809E+03  0.4111640E-02 -0.4144268E-01 -0.6964184E-06
  0.3000000E+00  0.3296732E+02  0.5395411E-03  0.2360236E-01  0.2297874E-07  0.1068037E-02  0.1863650E-05 -0.1987723E+00 -0.6193378E-07  0.2459809E+03  0.4026715E-02 -0.4144268E-01 -0.6820368E-06
  0.4000000E+00  0.3296732E+02  0.5237470E-03  0.2360236E-01  0.2229014E-07  0.1068037E-02  0.1813069E-05 -0.1987723E+00 -0.6000702E-07  0.2459809E+03  0.3908844E-02 -0.4144268E-01 -0.6620756E-06
  0.5000000E+00  0.3296732E+02  0.5036735E-03  0.2360236E-01  0.2141509E-07  0.1068037E-02  0.1748747E-05 -0.1987723E+00 -0.5755915E-07  0.2459809E+03  0.3759037E-02 -0.4144268E-01 -0.6367061E-06
  0.6000000E+00  0.3296732E+02  0.4794928E-03  0.2360236E-01  0.2036117E-07  0.1068037E-02  0.1671211E-05 -0.1987723E+00 -0.5461188E-07  0.2459809E+03  0.3578576E-02 -0.4144268E-01 -0.6061456E-06
  0.7000000E+00  0.3296732E+02  0.4514122E-03  0.2360236E-01  0.1913753E-07  0.1068037E-02  0.1581093E-05 -0.1987723E+00 -0.5119134E-07  0.2459809E+03  0.3369011E-02 -0.4144268E-01 -0.5706563E-06
  0.8000000E+00  0.3296732E+02  0.4196721E-03  0.2360236E-01  0.1775478E-07  0.1068037E-02  0.1479129E-05 -0.1987723E+00 -0.4732782E-07  0.2459809E+03  0.3132136E-02 -0.4144268E-01 -0.5305419E-06
  0.9000000E+00  0.3296732E+02  0.3845443E-03  0.2360236E-01  0.1622488E-07  0.1068037E-02  0.1366149E-05 -0.1987723E+00 -0.4305553E-07  0.2459809E+03  0.2869978E-02 -0.4144268E-01 -0.4861457E-06
  0.1000000E+01  0.3296732E+02  0.3463293E-03  0.2360236E-01  0.1456109E-07  0.1068037E-02  0.1243072E-05 -0.1987723E+00 -0.3841227E-07  0.2459809E+03  0.2584779E-02 -0.4144268E-01 -0.4378476E-06
  0.1100000E+01  0.3296732E+02  0.3053533E-03  0.2360236E-01  0.1277780E-07  0.1068037E-02  0.1110900E-05 -0.1987723E+00 -0.3343914E-07  0.2459809E+03  0.2278975E-02 -0.4144268E-01 -0.3860599E-06
  0.1200000E+01  0.3296732E+02  0.2619663E-03  0.2360236E-01  0.1089041E-07  0.1068037E-02  0.9707047E-06 -0.1987723E+00 -0.2818009E-07  0.2459809E+03  0.1955178E-02 -0.4144268E-01 -0.3312247E-06
  0.1300000E+01  0.3296732E+02  0.2165381E-03  0.2360236E-01  0.8915239E-08  0.1068037E-02  0.8236224E-06 -0.1987723E+00 -0.2268159E-07  0.2459809E+03  0.1616146E-02 -0.4144268E-01 -0.2738094E-06
  0.1400000E+01  0.3296732E+02  0.1694553E-03  0.2360236E-01  0.6869312E-08  0.1068037E-02  0.6708428E-06 -0.1987723E+00 -0.1699219E-07  0.2459809E+03  0.1264767E-02 -0.4144268E-01 -0.2143027E-06
  0.1500000E+01  0.3296732E+02  0.1211182E-03  0.2360236E-01  0.4770256E-08  0.1068037E-02  0.5135983E-06 -0.1987723E+00 -0.1116207E-07  0.2459809E+03  0.9040248E-03 -0.4144268E-01 -0.1532101E-06
  0.1600000E+01  0.3296732E+02  0.7193667E-04  0.2360236E-01  0.2636127E-08  0.1068037E-02  0.3531548E-06 -0.1987723E+00 -0.5242611E-08  0.2459809E+03  0.5369807E-03 -0.4144268E-01 -0.9104991E-07
  0.1700000E+01  0.3296732E+02  0.2232720E-04  0.2360236E-01  0.4852578E-09  0.1068037E-02  0.1908006E-06 -0.1987723E+00  0.7140838E-09  0.2459809E+03  0.1667424E-03 -0.4144268E-01 -0.2834827E-07
  0.1800000E+01  0.3296732E+02 -0.2729114E-04  0.2360236E-01 -0.1663908E-08  0.1068037E-02  0.2783486E-07 -0.1987723E+00  0.6655632E-08  0.2459809E+03 -0.2035630E-03 -0.4144268E-01  0.3436520E-07
  0.1900000E+01  0.3296732E+02 -0.7650023E-04  0.2360236E-01 -0.3792977E-08  0.1068037E-02 -0.1344423E-06 -0.1987723E+00  0.1252986E-07  0.2459809E+03 -0.5708149E-03 -0.4144268E-01  0.9656208E-07
  0.2000000E+01  0.3296732E+02 -0.1248868E-03  0.2360236E-01 -0.5883777E-08  0.1068037E-02 -0.2947423E-06 -0.1987723E+00  0.1828528E-07  0.2459809E+03 -0.9319293E-03 -0.4144268E-01  0.1577201E-06
  0.2100000E+01  0.3296732E+02 -0.1720457E-03  0.2360236E-01 -0.7918501E-08  0.1068037E-02 -0.4517970E-06 -0.1987723E+00  0.2387153E-07  0.2459809E+03 -0.1283882E-02 -0.4144268E-01  0.2173273E-06
  0.2200000E+01  0.3296732E+02 -0.2175834E-03  0.2360236E-01 -0.9879867E-08  0.1068037E-02 -0.6043699E-06 -0.1987723E+00  0.2923981E-07  0.2459809E+03 -0.1623737E-02 -0.4144268E-01  0.2748863E-06
  0.2300000E+01  0.3296732E+02 -0.2611218E-03  0.2360236E-01 -0.1175128E-07  0.1068037E-02 -0.7512681E-06 -0.1987723E+00  0.3434334E-07  0.2459809E+03 -0.1948672E-02 -0.4144268E-01  0.3299193E-06
  0.2400000E+01  0.3296732E+02 -0.3023013E-03  0.2360236E-01 -0.1351698E-07  0.1068037E-02 -0.8913503E-06 -0.1987723E+00  0.3913781E-07  0.2459809E+03 -0.2256004E-02 -0.4144268E-01  0.3819719E-06
  0.2500000E+01  0.3296732E+02 -0.3407837E-03  0.2360236E-01 -0.1516214E-07  0.1068037E-02 -0.1023536E-05 -0.1987723E+00  0.4358169E-07  0.2459809E+03 -0.2543208E-02 -0.4144268E-01  0.4306165E-06
  0.2600000E+01  0.3296732E+02 -0.3762554E-03  0.2360236E-01 -0.1667305E-07  0.1068037E-02 -0.1146816E-05 -0.1987723E+00  0.4763666E-07  0.2459809E+03 -0.2807944E-02 -0.4144268E-01  0.4754569E-06
  0.2700000E+01  0.3296732E+02 -0.4084296E-03  0.2360236E-01 -0.1803720E-07  0.1068037E-02 -0.1260259E-05 -0.1987723E+00  0.5126790E-07  0.2459809E+03 -0.3048073E-02 -0.4144268E-01  0.5161306E-06
  0.2800000E+01  0.3296732E+02 -0.4370496E-03  0.2360236E-01 -0.1924339E-07  0.1068037E-02 -0.1363021E-05 -0.1987723E+00  0.5444448E-07  0.2459809E+03 -0.3261676E-02 -0.4144268E-01  0.5523131E-06
  0.2900000E+01  0.3296732E+02 -0.4618900E-03  0.2360236E-01 -0.2028183E-07  0.1068037E-02 -0.1454349E-05 -0.1987723E+00  0.5713952E-07  0.2459809E+03 -0.3447073E-02 -0.4144268E-01  0.5837196E-06
  0.3000000E+01  0.3296732E+02 -0.4827589E-03  0.2360236E-01 -0.2114424E-07  0.1068037E-02 -0.1533591E-05 -0.1987723E+00  0.5933050E-07  0.2459809E+03 -0.3602833E-02 -0.4144268E-01  0.6101075E-06
  0.3100000E+01  0.3296732E+02 -0.4995000E-03  0.2360236E-01 -0.2182388E-07  0.1068037E-02 -0.1600197E-05 -0.1987723E+00  0.6099943E-07  0.2459809E+03 -0.3727786E-02 -0.4144268E-01  0.6312791E-06
  0.3200000E+01  0.3296732E+02 -0.5119928E-03  0.2360236E-01 -0.2231564E-07  0.1068037E-02 -0.1653725E-05 -0.1987723E+00  0.6213300E-07  0.2459809E+03 -0.3821037E-02 -0.4144268E-01  0.6470822E-06
  0.3300000E+01  0.3296732E+02 -0.5201546E-03  0.2360236E-01 -0.2261605E-07  0.1068037E-02 -0.1693846E-05 -0.1987723E+00  0.6272268E-07  0.2459809E+03 -0.3881963E-02 -0.4144268E-01  0.6574119E-06
  0.3400000E+01  0.3296732E+02 -0.5239400E-03  0.2360236E-01 -0.2272336E-07  0.1068037E-02 -0.1720342E-05 -0.1987723E+00  0.6276481E-07  0.2459809E+03 -0.3910230E-02 -0.4144268E-01  0.6622113E-06
  0.3500000E+01  0.3296732E+02 -0.5233421E-03  0.2360236E-01 -0.2263747E-07  0.1068037E-02 -0.1733111E-05 -0.1987723E+00  0.6226059E-07  0.2459809E+03 -0.3905786E-02 -0.4144268E-01  0.6614712E-06
  0.3600000E+01  0.3296732E+02 -0.5183918E-03  0.2360236E-01 -0.2236000E-07  0.1068037E-02 -0.1732164E-05 -0.1987723E+00  0.6121608E-07  0.2459809E+03 -0.3868859E-02 -0.4144268E-01  0.6552307E-06
  0.3700000E+01  0.3296732E+02 -0.5091578E-03  0.2360236E-01 -0.2189420E-07  0.1068037E-02 -0.1717627E-05 -0.1987723E+00  0.5964216E-07  0.2459809E+03 -0.3799963E-02 -0.4144268E-01  0.6435764E-06
  0.3800000E+01  0.3296732E+02 -0.4957453E-03  0.2360236E-01 -0.2124499E-07  0.1068037E-02 -0.1689738E-05 -0.1987723E+00  0.5755435E-07  0.2459809E+03 -0.3699882E-02 -0.4144268E-01  0.6266412E-06
  0.3900000E+01  0.3296732E+02 -0.4782952E-03  0.2360236E-01 -0.2041886E-07  0.1068037E-02 -0.1648845E-05 -0.1987723E+00  0.5497269E-07  0.2459809E+03 -0.3569668E-02 -0.4144268E-01  0.6046032E-06
  0.4000000E+01  0.3296732E+02 -0.4569827E-03  0.2360236E-01 -0.1942381E-07  0.1068037E-02 -0.1595401E-05 -0.1987723E+00  0.5192161E-07  0.2459809E+03 -0.3410631E-02 -0.4144268E-01  0.5776837E-06
  0.4100000E+01  0.3296732E+02 -0.4320157E-03  0.2360236E-01 -0.1826929E-07  0.1068037E-02 -0.1529959E-05 -0.1987723E+00  0.4842959E-07  0.2459809E+03 -0.3224318E-02 -0.4144268E-01  0.5461452E-06
  0.4200000E+01  0.3296732E+02 -0.4036324E-03  0.2360236E-01 -0.1696610E-07  0.1068037E-02 -0.1453169E-05 -0.1987723E+00  0.4452897E-07  0.2459809E+03 -0.3012508E-02 -0.4144268E-01  0.5102887E-06
  0.4300000E+01  0.3296732E+02 -0.3720995E-03  0.2360236E-01 -0.1552631E-07  0.1068037E-02 -0.1365771E-05 -0.1987723E+00  0.4025565E-07  0.2459809E+03 -0.2777193E-02 -0.4144268E-01  0.4704512E-06
  0.4400000E+01  0.3296732E+02 -0.3377094E-03  0.2360236E-01 -0.1396312E-07  0.1068037E-02 -0.1268588E-05 -0.1987723E+00  0.3564870E-07  0.2459809E+03 -0.2520553E-02 -0.4144268E-01  0.4270019E-06
  0.4500000E+01  0.3296732E+02 -0.3007776E-03  0.2360236E-01 -0.1229074E-07  0.1068037E-02 -0.1162515E-05 -0.1987723E+00  0.3075005E-07  0.2459809E+03 -0.2244943E-02 -0.4144268E-01  0.3803397E-06
  0.4600000E+01  0.3296732E+02 -0.2616395E-03  0.2360236E-01 -0.1052427E-07  0.1068037E-02 -0.1048517E-05 -0.1987723E+00  0.2560407E-07  0.2459809E+03 -0.1952867E-02 -0.4144268E-01  0.3308882E-06
  0.4700000E+01  0.3296732E+02 -0.2206478E-03  0.2360236E-01 -0.8679556E-08  0.1068037E-02 -0.9276148E-06 -0.1987723E+00  0.2025720E-07  0.2459809E+03 -0.1646955E-02 -0.4144268E-01  0.2790931E-06
  0.4800000E+01  0.3296732E+02 -0.1781691E-03  0.2360236E-01 -0.6773083E-08  0.1068037E-02 -0.8008794E-06 -0.1987723E+00  0.1475753E-07  0.2459809E+03 -0.1329945E-02 -0.4144268E-01  0.2254177E-06
  0.4900000E+01  0.3296732E+02 -0.1345806E-03  0.2360236E-01 -0.4821768E-08  0.1068037E-02 -0.6694207E-06 -0.1987723E+00  0.9154332E-08  0.2459809E+03 -0.1004651E-02 -0.4144268E-01  0.1703384E-06
  0.5000000E+01  0.3296732E+02 -0.9026611E-04  0.2360236E-01 -0.2842826E-08  0.1068037E-02 -0.5343771E-06 -0.1987723E+00  0.3497574E-08  0.2459809E+03 -0.6739362E-03 -0.4144268E-01  0.1143403E-06
  0.5100000E+01  0.3296732E+02 -0.4561360E-04  0.2360236E-01 -0.8536416E-09  0.1068037E-02 -0.3969074E-06 -0.1987723E+00 -0.2162410E-08  0.2459809E+03 -0.3406976E-03 -0.4144268E-01  0.5791371E-07
  0.5200000E+01  0.3296732E+02 -0.1010679E-05  0.2360236E-01  0.1128431E-08  0.1068037E-02 -0.2581777E-06 -0.1987723E+00 -0.7775538E-08  0.2459809E+03 -0.7826628E-05 -0.4144268E-01  0.1548288E-08
  0.5300000E+01  0.3296732E+02  0.4315732E-04  0.2360236E-01  0.3086148E-08  0.1068037E-02 -0.1193571E-06 -0.1987723E+00 -0.1329219E-07  0.2459809E+03  0.3218002E-03 -0.4144268E-01 -0.5426895E-07
  0.5400000E+01  0.3296732E+02  0.8651272E-04  0.2360236E-01  0.5002630E-08  0.1068037E-02  0.1840069E-07 -0.1987723E+00 -0.1866395E-07  0.2459809E+03  0.6453650E-03 -0.4144268E-01 -0.1090608E-06
  0.5500000E+01  0.3296732E+02  0.1286872E-03  0.2360236E-01  0.6861420E-08  0.1068037E-02  0.1539598E-06 -0.1987723E+00 -0.2384380E-07  0.2459809E+03  0.9601185E-03 -0.4144268E-01 -0.1623619E-06
  0.5600000E+01  0.3296732E+02  0.1693262E-03  0.2360236E-01  0.8646693E-08  0.1068037E-02  0.2862167E-06 -0.1987723E+00 -0.2878668E-07  0.2459809E+03  0.1263414E-02 -0.4144268E-01 -0.2137238E-06
  0.5700000E+01  0.3296732E+02  0.2080909E-03  0.2360236E-01  0.1034335E-07  0.1068037E-02  0.4141070E-06 -0.1987723E+00 -0.3344979E-07  0.2459809E+03  0.1552725E-02 -0.4144268E-01 -0.2627188E-06
  0.5800000E+01  0.3296732E+02  0.2446616E-03  0.2360236E-01  0.1193715E-07  0.1068037E-02  0.5366140E-06 -0.1987723E+00 -0.3779300E-07  0.2459809E+03  0.1825664E-02 -0.4144268E-01 -0.3089426E-06
  0.5900000E+01  0.3296732E+02  0.2787408E-03  0.2360236E-01  0.1341487E-07  0.1068037E-02  0.6527789E-06 -0.1987723E+00 -0.4177923E-07  0.2459809E+03  0.2080010E-02 -0.4144268E-01 -0.3520194E-06
  0.6000000E+01  0.3296732E+02  0.3100553E-03  0.2360236E-01  0.1476440E-07  0.1068037E-02  0.7617076E-06 -0.1987723E+00 -0.4537477E-07  0.2459809E+03  0.2313726E-02 -0.4144268E-01 -0.3916036E-06
  0.6100000E+01  0.3296732E+02  0.3383586E-03  0.2360236E-01  0.1597481E-07  0.1068037E-02  0.8625786E-06 -0.1987723E+00 -0.4854955E-07  0.2459809E+03  0.2524971E-02 -0.4144268E-01 -0.4273840E-06
  0.6200000E+01  0.3296732E+02  0.3634329E-03  0.2360236E-01  0.1703649E-07  0.1068037E-02  0.9546478E-06 -0.1987723E+00 -0.5127735E-07  0.2459809E+03  0.2712120E-02 -0.4144268E-01 -0.4590849E-06
  0.6300000E+01  0.3296732E+02  0.3850904E-03  0.2360236E-01  0.1794120E-07  0.1068037E-02  0.1037255E-05 -0.1987723E+00 -0.5353609E-07  0.2459809E+03  0.2873771E-02 -0.4144268E-01 -0.4864693E-06
  0.6400000E+01  0.3296732E+02  0.4031756E-03  0.2360236E-01  0.1868214E-07  0.1068037E-02  0.1109829E-05 -0.1987723E+00 -0.5530802E-07  0.2459809E+03  0.3008763E-02 -0.4144268E-01 -0.5093403E-06
  0.6500000E+01  0.3296732E+02  0.4175659E-03  0.2360236E-01  0.1925402E-07  0.1068037E-02  0.1171894E-05 -0.1987723E+00 -0.5657980E-07  0.2459809E+03  0.3116181E-02 -0.4144268E-01 -0.5275430E-06
  0.6600000E+01  0.3296732E+02  0.4281724E-03  0.2360236E-01  0.1965308E-07  0.1068037E-02  0.1223067E-05 -0.1987723E+00 -0.5734264E-07  0.2459809E+03  0.3195363E-02 -0.4144268E-01 -0.5409650E-06
  0.6700000E+01  0.3296732E+02  0.4349409E-03  0.2360236E-01  0.1987709E-07  0.1068037E-02  0.1263066E-05 -0.1987723E+00 -0.5759237E-07  0.2459809E+03  0.3245902E-02 -0.4144268E-01 -0.5495377E-06
  0.6800000E+01  0.3296732E+02  0.4378515E-03  0.2360236E-01  0.1992544E-07  0.1068037E-02  0.1291709E-05 -0.1987723E+00 -0.5732941E-07  0.2459809E+03  0.3267651E-02 -0.4144268E-01 -0.5532356E-06
  0.6900000E+01  0.3296732E+02  0.4369190E-03  0.2360236E-01  0.1979904E-07  0.1068037E-02  0.1308914E-05 -0.1987723E+00 -0.5655880E-07  0.2459809E+03  0.3260719E-02 -0.4144268E-01 -0.5520776E-06
  0.7000000E+01  0.3296732E+02  0.4321923E-03  0.2360236E-01  0.1950038E-07  0.1068037E-02  0.1314700E-05 -0.1987723E+00 -0.5529010E-07  0.2459809E+03  0.3225471E-02 -0.4144268E-01 -0.5461251E-06
  0.7100000E+01  0.3296732E+02  0.4237535E-03  0.2360236E-01  0.1903343E-07  0.1068037E-02  0.1309184E-05 -0.1987723E+00 -0.5353731E-07  0.2459809E+03  0.3162521E-02 -0.4144268E-01 -0.5354819E-06
  0.7200000E+01  0.3296732E+02  0.4117173E-03  0.2360236E-01  0.1840364E-07  0.1068037E-02  0.1292581E-05 -0.1987723E+00 -0.5131867E-07  0.2459809E+03  0.3072723E-02 -0.4144268E-01 -0.5202928E-06
  0.7300000E+01  0.3296732E+02  0.3962294E-03  0.2360236E-01  0.1761791E-07  0.1068037E-02  0.1265201E-05 -0.1987723E+00 -0.4865656E-07  0.2459809E+03  0.2957165E-02 -0.4144268E-01 -0.5007417E-06
  0.7400000E+01  0.3296732E+02  0.3774650E-03  0.2360236E-01  0.1668442E-07  0.1068037E-02  0.1227442E-05 -0.1987723E+00 -0.4557719E-07  0.2459809E+03  0.2817153E-02 -0.4144268E-01 -0.4770498E-06
  0.7500000E+01  0.3296732E+02  0.3556270E-03  0.2360236E-01  0.1561264E-07  0.1068037E-02  0.1179788E-05 -0.1987723E+00 -0.4211041E-07  0.2459809E+03  0.2654202E-02 -0.4144268E-01 -0.4494733E-06
  0.7600000E+01  0.3296732E+02  0.3309436E-03  0.2360236E-01  0.1441321E-07  0.1068037E-02  0.1122806E-05 -0.1987723E+00 -0.3828939E-07  0.2459809E+03  0.2470016E-02 -0.4144268E-01 -0.4183008E-06
  0.7700000E+01  0.3296732E+02  0.3036665E-03  0.2360236E-01  0.1309779E-07  0.1068037E-02  0.1057135E-05 -0.1987723E+00 -0.3415028E-07  0.2459809E+03  0.2266471E-02 -0.4144268E-01 -0.3838500E-06
  0.7800000E+01  0.3296732E+02  0.2740684E-03  0.2360236E-01  0.1167903E-07  0.1068037E-02  0.9834820E-06 -0.1987723E+00 -0.2973199E-07  0.2459809E+03  0.2045603E-02 -0.4144268E-01 -0.3464654E-06
  0.7900000E+01  0.3296732E+02  0.2424399E-03  0.2360236E-01  0.1017040E-07  0.1068037E-02  0.9026166E-06 -0.1987723E+00 -0.2507563E-07  0.2459809E+03  0.1809581E-02 -0.4144268E-01 -0.3065141E-06
  0.8000000E+01  0.3296732E+02  0.2090871E-03  0.2360236E-01  0.8586047E-08  0.1068037E-02  0.8153609E-06 -0.1987723E+00 -0.2022431E-07  0.2459809E+03  0.1560688E-02 -0.4144268E-01 -0.2643827E-06
  0.8100000E+01  0.3296732E+02  0.1743280E-03  0.2360236E-01  0.6940698E-08  0.1068037E-02  0.7225814E-06 -0.1987723E+00 -0.1522259E-07  0.2459809E+03  0.1301299E-02 -0.4144268E-01 -0.2204732E-06
  0.8200000E+01  0.3296732E+02  0.1384910E-03  0.2360236E-01  0.5249531E-08  0.1068037E-02  0.6251838E-06 -0.1987723E+00 -0.1011624E-07  0.2459809E+03  0.1033862E-02 -0.4144268E-01 -0.1752003E-06
  0.8300000E+01  0.3296732E+02  0.1019097E-03  0.2360236E-01  0.3527969E-08  0.1068037E-02  0.5240997E-06 -0.1987723E+00 -0.4951596E-08  0.2459809E+03  0.7608691E-03 -0.4144268E-01 -0.1289854E-06
  0.8400001E+01  0.3296732E+02  0.6492175E-04  0.2360236E-01  0.1791621E-08  0.1068037E-02  0.4202823E-06 -0.1987723E+00  0.2246597E-09  0.2459809E+03  0.4848382E-03 -0.4144268E-01 -0.8225523E-07
  0.8500000E+01  0.3296732E+02  0.2786511E-04  0.2360236E-01  0.5611770E-10  0.1068037E-02  0.3146972E-06 -0.1987723E+00  0.5365926E-08  0.2459809E+03  0.2082925E-03 -0.4144268E-01 -0.3543678E-07
  0.8600000E+01  0.3296732E+02 -0.8926567E-05  0.2360236E-01 -0.1663113E-08  0.1068037E-02  0.2083078E-06 -0.1987723E+00  0.1042641E-07  0.2459809E+03 -0.6627870E-04 -0.4144268E-01  0.1104843E-07
  0.8700000E+01  0.3296732E+02 -0.4512382E-04  0.2360236E-01 -0.3350827E-08  0.1068037E-02  0.1020766E-06 -0.1987723E+00  0.1536102E-07  0.2459809E+03 -0.3364162E-03 -0.4144268E-01  0.5678410E-07
  0.8800000E+01  0.3296732E+02 -0.8040798E-04  0.2360236E-01 -0.4992277E-08  0.1068037E-02 -0.3054708E-08 -0.1987723E+00  0.2012635E-07  0.2459809E+03 -0.5997423E-03 -0.4144268E-01  0.1013675E-06
  0.8900001E+01  0.3296732E+02 -0.1144707E-03  0.2360236E-01 -0.6573186E-08  0.1068037E-02 -0.1061629E-06 -0.1987723E+00  0.2468054E-07  0.2459809E+03 -0.8539551E-03 -0.4144268E-01  0.1444091E-06
  0.9000000E+01  0.3296732E+02 -0.1470185E-03  0.2360236E-01 -0.8079955E-08  0.1068037E-02 -0.2063579E-06 -0.1987723E+00  0.2898394E-07  0.2459809E+03 -0.1096865E-02 -0.4144268E-01  0.1855381E-06
  0.9100000E+01  0.3296732E+02 -0.1777759E-03  0.2360236E-01 -0.9499819E-08  0.1068037E-02 -0.3027909E-06 -0.1987723E+00  0.3299953E-07  0.2459809E+03 -0.1326416E-02 -0.4144268E-01  0.2244063E-06
  0.9200000E+01  0.3296732E+02 -0.2064853E-03  0.2360236E-01 -0.1082081E-07  0.1068037E-02 -0.3946550E-06 -0.1987723E+00  0.3669287E-07  0.2459809E+03 -0.1540686E-02 -0.4144268E-01  0.2606880E-06
  0.9300000E+01  0.3296732E+02 -0.2329121E-03  0.2360236E-01 -0.1203206E-07  0.1068037E-02 -0.4812006E-06 -0.1987723E+00  0.4003285E-07  0.2459809E+03 -0.1737922E-02 -0.4144268E-01  0.2940871E-06
  0.9400001E+01  0.3296732E+02 -0.2568444E-03  0.2360236E-01 -0.1312370E-07  0.1068037E-02 -0.5617349E-06 -0.1987723E+00  0.4299163E-07  0.2459809E+03 -0.1916546E-02 -0.4144268E-01  0.3243356E-06
  0.9500000E+01  0.3296732E+02 -0.2780960E-03  0.2360236E-01 -0.1408706E-07  0.1068037E-02 -0.6356296E-06 -0.1987723E+00  0.4554499E-07  0.2459809E+03 -0.2075165E-02 -0.4144268E-01  0.3511979E-06
  0.9600000E+01  0.3296732E+02 -0.2965071E-03  0.2360236E-01 -0.1491471E-07  0.1068037E-02 -0.7023277E-06 -0.1987723E+00  0.4767254E-07  0.2459809E+03 -0.2212588E-02 -0.4144268E-01  0.3744724E-06
  0.9700000E+01  0.3296732E+02 -0.3119460E-03  0.2360236E-01 -0.1560049E-07  0.1068037E-02 -0.7613433E-06 -0.1987723E+00  0.4935784E-07  0.2459809E+03 -0.2327832E-02 -0.4144268E-01  0.3939925E-06
  0.9800000E+01  0.3296732E+02 -0.3243102E-03  0.2360236E-01 -0.1613961E-07  0.1068037E-02 -0.8122713E-06 -0.1987723E+00  0.5058859E-07  0.2459809E+03 -0.2420130E-02 -0.4144268E-01  0.4096284E-06
  0.9900001E+01  0.3296732E+02 -0.3335262E-03  0.2360236E-01 -0.1652861E-07  0.1068037E-02 -0.8547833E-06 -0.1987723E+00  0.5135663E-07  0.2459809E+03 -0.2488936E-02 -0.4144268E-01  0.4212873E-06
Zone t="DoF    2",I=   100,F=POINT
  0.0000000E+00 -0.2194400E-01  0.2847342E-07  0.3297231E+02  0.5601625E-03  0.4774040E-03 -0.3160388E-06 -0.2460181E+03 -0.4180619E-02 -0.1878862E+00  0.3256689E-06  0.4118579E-01  0.6993739E-06
  0.1000000E+00 -0.2194400E-01  0.2836694E-07  0.3297231E+02  0.5578666E-03  0.4774040E-03 -0.3148214E-06 -0.2460181E+03 -0.4163485E-02 -0.1878862E+00  0.3244152E-06  0.4118579E-01  0.6965075E-06
  0.2000000E+00 -0.2194400E-01  0.2804833E-07  0.3297231E+02  0.5509987E-03  0.4774040E-03 -0.3111793E-06 -0.2460181E+03 -0.4112230E-02 -0.1878862E+00  0.3206643E-06  0.4118579E-01  0.6879330E-06
  0.3000000E+00 -0.2194400E-01  0.2752017E-07  0.3297231E+02  0.5396177E-03  0.4774040E-03 -0.3051424E-06 -0.2460181E+03 -0.4027294E-02 -0.1878862E+00  0.3144470E-06  0.4118579E-01  0.6737240E-06
  0.4000000E+00 -0.2194400E-01  0.2678670E-07  0.3297231E+02  0.5238213E-03  0.4774040E-03 -0.2967604E-06 -0.2460181E+03 -0.3909406E-02 -0.1878862E+00  0.3058143E-06  0.4118579E-01  0.6540023E-06
  0.5000000E+00 -0.2194400E-01  0.2585381E-07  0.3297231E+02  0.5037449E-03  0.4774040E-03 -0.2861023E-06 -0.2460181E+03 -0.3759576E-02 -0.1878862E+00  0.2948370E-06  0.4118579E-01  0.6289372E-06
  0.6000000E+00 -0.2194400E-01  0.2472900E-07  0.3297231E+02  0.4795607E-03  0.4774040E-03 -0.2732555E-06 -0.2460181E+03 -0.3579090E-02 -0.1878862E+00  0.2816048E-06  0.4118579E-01  0.5987437E-06
  0.7000000E+00 -0.2194400E-01  0.2342128E-07  0.3297231E+02  0.4514760E-03  0.4774040E-03 -0.2583255E-06 -0.2460181E+03 -0.3369494E-02 -0.1878862E+00  0.2662264E-06  0.4118579E-01  0.5636804E-06
  0.8000000E+00 -0.2194400E-01  0.2194115E-07  0.3297231E+02  0.4197314E-03  0.4774040E-03 -0.2414349E-06 -0.2460181E+03 -0.3132584E-02 -0.1878862E+00  0.2488273E-06  0.4118579E-01  0.5240477E-06
  0.9000000E+00 -0.2194400E-01  0.2030046E-07  0.3297231E+02  0.3845986E-03  0.4774040E-03 -0.2227222E-06 -0.2460181E+03 -0.2870387E-02 -0.1878862E+00  0.2295499E-06  0.4118579E-01  0.4801847E-06
  0.1000000E+01 -0.2194400E-01  0.1851232E-07  0.3297231E+02  0.3463780E-03  0.4774040E-03 -0.2023405E-06 -0.2460181E+03 -0.2585147E-02 -0.1878862E+00  0.2085515E-06  0.4118579E-01  0.4324668E-06
  0.1100000E+01 -0.2194400E-01  0.1659103E-07  0.3297231E+02  0.3053961E-03  0.4774040E-03 -0.1804566E-06 -0.2460181E+03 -0.2279300E-02 -0.1878862E+00  0.1860033E-06  0.4118579E-01  0.3813014E-06
  0.1200000E+01 -0.2194400E-01  0.1455189E-07  0.3297231E+02  0.2620029E-03  0.4774040E-03 -0.1572491E-06 -0.2460181E+03 -0.1955455E-02 -0.1878862E+00  0.1620890E-06  0.4118579E-01  0.3271254E-06
  0.1300000E+01 -0.2194400E-01  0.1241114E-07  0.3297231E+02  0.2165681E-03  0.4774040E-03 -0.1329074E-06 -0.2460181E+03 -0.1616374E-02 -0.1878862E+00  0.1370029E-06  0.4118579E-01  0.2704005E-06
  0.1400000E+01 -0.2194400E-01  0.1018578E-07  0.3297231E+02  0.1694786E-03  0.4774040E-03 -0.1076295E-06 -0.2460181E+03 -0.1264943E-02 -0.1878862E+00  0.1109488E-06  0.4118579E-01  0.2116096E-06
  0.1500000E+01 -0.2194400E-01  0.7893441E-08  0.3297231E+02  0.1211345E-03  0.4774040E-03 -0.8162074E-07 -0.2460181E+03 -0.9041489E-03 -0.1878862E+00  0.8413750E-07  0.4118579E-01  0.1512524E-06
  0.1600000E+01 -0.2194400E-01  0.5552239E-08  0.3297231E+02  0.7194592E-04  0.4774040E-03 -0.5509186E-07 -0.2460181E+03 -0.5370517E-03 -0.1878862E+00  0.5678566E-07  0.4118579E-01  0.8984069E-07
  0.1700000E+01 -0.2194400E-01  0.3180616E-08  0.3297231E+02  0.2232935E-04  0.4774040E-03 -0.2825728E-07 -0.2460181E+03 -0.1667596E-03 -0.1878862E+00  0.2911373E-07  0.4118579E-01  0.2789459E-07
  0.1800000E+01 -0.2194400E-01  0.7971975E-09  0.3297231E+02 -0.2729611E-04  0.4774040E-03 -0.1333268E-08 -0.2460181E+03  0.2035994E-03 -0.1878862E+00  0.1344075E-08  0.4118579E-01 -0.3406268E-07
  0.1900000E+01 -0.2194400E-01 -0.1579371E-08  0.3297231E+02 -0.7651225E-04  0.4774040E-03  0.2546390E-07 -0.2460181E+03  0.5709046E-03 -0.1878862E+00 -0.2630085E-07  0.4118579E-01 -0.9550904E-07
  0.2000000E+01 -0.2194400E-01 -0.3930581E-08  0.3297231E+02 -0.1249058E-03  0.4774040E-03  0.5191986E-07 -0.2460181E+03  0.9320711E-03 -0.1878862E+00 -0.5360054E-07  0.4118579E-01 -0.1559284E-06
  0.2100000E+01 -0.2194400E-01 -0.6238209E-08  0.3297231E+02 -0.1720714E-03  0.4774040E-03  0.7782380E-07 -0.2460181E+03  0.1284075E-02 -0.1878862E+00 -0.8033804E-07  0.4118579E-01 -0.2148150E-06
  0.2200000E+01 -0.2194400E-01 -0.8484453E-08  0.3297231E+02 -0.2176156E-03  0.4774040E-03  0.1029702E-06 -0.2460181E+03  0.1623979E-02 -0.1878862E+00 -0.1063018E-06  0.4118579E-01 -0.2716772E-06
  0.2300000E+01 -0.2194400E-01 -0.1065211E-07  0.3297231E+02 -0.2611602E-03  0.4774040E-03  0.1271609E-06 -0.2460181E+03  0.1948961E-02 -0.1878862E+00 -0.1312878E-06  0.4118579E-01 -0.3260431E-06
  0.2400000E+01 -0.2194400E-01 -0.1272470E-07  0.3297231E+02 -0.3023456E-03  0.4774040E-03  0.1502064E-06 -0.2460181E+03  0.2256337E-02 -0.1878862E+00 -0.1551007E-06  0.4118579E-01 -0.3774638E-06
  0.2500000E+01 -0.2194400E-01 -0.1468659E-07  0.3297231E+02 -0.3408334E-03  0.4774040E-03  0.1719274E-06 -0.2460181E+03  0.2543582E-02 -0.1878862E+00 -0.1775558E-06  0.4118579E-01 -0.4255167E-06
  0.2600000E+01 -0.2194400E-01 -0.1652313E-07  0.3297231E+02 -0.3763101E-03  0.4774040E-03  0.1921567E-06 -0.2460181E+03  0.2808356E-02 -0.1878862E+00 -0.1984806E-06  0.4118579E-01 -0.4698102E-06
  0.2700000E+01 -0.2194400E-01 -0.1822077E-07  0.3297231E+02 -0.4084889E-03  0.4774040E-03  0.2107400E-06 -0.2460181E+03  0.3048519E-02 -0.1878862E+00 -0.2177158E-06  0.4118579E-01 -0.5099866E-06
  0.2800000E+01 -0.2194400E-01 -0.1976718E-07  0.3297231E+02 -0.4371129E-03  0.4774040E-03  0.2275377E-06 -0.2460181E+03  0.3262153E-02 -0.1878862E+00 -0.2351172E-06  0.4118579E-01 -0.5457250E-06
  0.2900000E+01 -0.2194400E-01 -0.2115131E-07  0.3297231E+02 -0.4619567E-03  0.4774040E-03  0.2424256E-06 -0.2460181E+03  0.3447576E-02 -0.1878862E+00 -0.2505563E-06  0.4118579E-01 -0.5767440E-06
  0.3000000E+01 -0.2194400E-01 -0.2236350E-07  0.3297231E+02 -0.4828286E-03  0.4774040E-03  0.2552960E-06 -0.2460181E+03  0.3603358E-02 -0.1878862E+00 -0.2639215E-06  0.4118579E-01 -0.6028040E-06
  0.3100000E+01 -0.2194400E-01 -0.2339559E-07  0.3297231E+02 -0.4995720E-03  0.4774040E-03  0.2660589E-06 -0.2460181E+03  0.3728329E-02 -0.1878862E+00 -0.2751193E-06  0.4118579E-01 -0.6237098E-06
  0.3200000E+01 -0.2194400E-01 -0.2424089E-07  0.3297231E+02 -0.5120665E-03  0.4774040E-03  0.2746419E-06 -0.2460181E+03  0.3821592E-02 -0.1878862E+00 -0.2840744E-06  0.4118579E-01 -0.6393112E-06
  0.3300000E+01 -0.2194400E-01 -0.2489431E-07  0.3297231E+02 -0.5202292E-03  0.4774040E-03  0.2809915E-06 -0.2460181E+03  0.3882527E-02 -0.1878862E+00 -0.2907306E-06  0.4118579E-01 -0.6495044E-06
  0.3400000E+01 -0.2194400E-01 -0.2535234E-07  0.3297231E+02 -0.5240150E-03  0.4774040E-03  0.2850732E-06 -0.2460181E+03  0.3910797E-02 -0.1878862E+00 -0.2950513E-06  0.4118579E-01 -0.6542331E-06
  0.3500000E+01 -0.2194400E-01 -0.2561312E-07  0.3297231E+02 -0.5234169E-03  0.4774040E-03  0.2868714E-06 -0.2460181E+03  0.3906351E-02 -0.1878862E+00 -0.2970193E-06  0.4118579E-01 -0.6534885E-06
  0.3600000E+01 -0.2194400E-01 -0.2567637E-07  0.3297231E+02 -0.5184658E-03  0.4774040E-03  0.2863898E-06 -0.2460181E+03  0.3869418E-02 -0.1878862E+00 -0.2966372E-06  0.4118579E-01 -0.6473094E-06
  0.3700000E+01 -0.2194400E-01 -0.2554347E-07  0.3297231E+02 -0.5092304E-03  0.4774040E-03  0.2836512E-06 -0.2460181E+03  0.3800510E-02 -0.1878862E+00 -0.2939271E-06  0.4118579E-01 -0.6357813E-06
  0.3800000E+01 -0.2194400E-01 -0.2521736E-07  0.3297231E+02 -0.4958157E-03  0.4774040E-03  0.2786969E-06 -0.2460181E+03  0.3700414E-02 -0.1878862E+00 -0.2889304E-06  0.4118579E-01 -0.6190356E-06
  0.3900000E+01 -0.2194400E-01 -0.2470257E-07  0.3297231E+02 -0.4783629E-03  0.4774040E-03  0.2715867E-06 -0.2460181E+03  0.3570181E-02 -0.1878862E+00 -0.2817071E-06  0.4118579E-01 -0.5972483E-06
  0.4000000E+01 -0.2194400E-01 -0.2400510E-07  0.3297231E+02 -0.4570473E-03  0.4774040E-03  0.2623981E-06 -0.2460181E+03  0.3411118E-02 -0.1878862E+00 -0.2723354E-06  0.4118579E-01 -0.5706382E-06
  0.4100000E+01 -0.2194400E-01 -0.2313243E-07  0.3297231E+02 -0.4320765E-03  0.4774040E-03  0.2512250E-06 -0.2460181E+03  0.3224778E-02 -0.1878862E+00 -0.2609110E-06  0.4118579E-01 -0.5394648E-06
  0.4200000E+01 -0.2194400E-01 -0.2209339E-07  0.3297231E+02 -0.4036890E-03  0.4774040E-03  0.2381779E-06 -0.2460181E+03  0.3012937E-02 -0.1878862E+00 -0.2475458E-06  0.4118579E-01 -0.5040254E-06
  0.4300000E+01 -0.2194400E-01 -0.2089811E-07  0.3297231E+02 -0.3721515E-03  0.4774040E-03  0.2233817E-06 -0.2460181E+03  0.2777586E-02 -0.1878862E+00 -0.2323672E-06  0.4118579E-01 -0.4646533E-06
  0.4400000E+01 -0.2194400E-01 -0.1955791E-07  0.3297231E+02 -0.3377563E-03  0.4774040E-03  0.2069754E-06 -0.2460181E+03  0.2520908E-02 -0.1878862E+00 -0.2155168E-06  0.4118579E-01 -0.4217133E-06
  0.4500000E+01 -0.2194400E-01 -0.1808519E-07  0.3297231E+02 -0.3008190E-03  0.4774040E-03  0.1891102E-06 -0.2460181E+03  0.2245258E-02 -0.1878862E+00 -0.1971489E-06  0.4118579E-01 -0.3755995E-06
  0.4600000E+01 -0.2194400E-01 -0.1649332E-07  0.3297231E+02 -0.2616752E-03  0.4774040E-03  0.1699483E-06 -0.2460181E+03  0.1953138E-02 -0.1878862E+00 -0.1774292E-06  0.4118579E-01 -0.3267306E-06
  0.4700000E+01 -0.2194400E-01 -0.1479652E-07  0.3297231E+02 -0.2206774E-03  0.4774040E-03  0.1496618E-06 -0.2460181E+03  0.1647181E-02 -0.1878862E+00 -0.1565336E-06  0.4118579E-01 -0.2755471E-06
  0.4800000E+01 -0.2194400E-01 -0.1300975E-07  0.3297231E+02 -0.1781926E-03  0.4774040E-03  0.1284307E-06 -0.2460181E+03  0.1330124E-02 -0.1878862E+00 -0.1346463E-06  0.4118579E-01 -0.2225067E-06
  0.4900000E+01 -0.2194400E-01 -0.1114853E-07  0.3297231E+02 -0.1345977E-03  0.4774040E-03  0.1064415E-06 -0.2460181E+03  0.1004782E-02 -0.1878862E+00 -0.1119582E-06  0.4118579E-01 -0.1680803E-06
  0.5000000E+01 -0.2194400E-01 -0.9228859E-08  0.3297231E+02 -0.9027678E-04  0.4774040E-03  0.8388518E-07 -0.2460181E+03  0.6740188E-03 -0.1878862E+00 -0.8866490E-07  0.4118579E-01 -0.1127472E-06