 VARIABLES="X" "Y" "Z" "abs(p) (Pa)" "angle(p) (rad)"
ZONE N=    984,E =     246,F=FEPOINT,ET=QUADRILATERAL
 -0.4559500      1.2500000E-03 -0.1500000       19.15621      -1.571196    
 -0.4553438     -2.2286100E-02 -0.1500000       19.15621      -1.571196    
 -0.5642492     -2.7899800E-02 -4.6000001E-03   19.15621      -1.571196    
 -0.4559500      1.2500000E-03 -0.1500000       19.15621      -1.571196    
 -0.5642492     -2.7899800E-02 -4.6000001E-03   45.87726      -1.570961    
 -0.4553438     -2.2286100E-02 -0.1500000       45.87726      -1.570961    
 -0.4505038     -6.9108702E-02 -0.1500000       45.87726      -1.570961    
 -0.5642492     -2.7899800E-02 -4.6000001E-03   45.87726      -1.570961    
 -0.5642492     -2.7899800E-02 -4.6000001E-03   65.67991      -1.570911    
 -0.4505038     -6.9108702E-02 -0.1500000       65.67991      -1.570911    
 -0.5582547     -8.5890502E-02 -4.6000001E-03   65.67991      -1.570911    
 -0.5642492     -2.7899800E-02 -4.6000001E-03   65.67991      -1.570911    
 -0.5582547     -8.5890502E-02 -4.6000001E-03   100.7874      -1.570870    
 -0.4505038     -6.9108702E-02 -0.1500000       100.7874      -1.570870    
 -0.4408751     -0.1151856     -0.1500000       100.7874      -1.570870    
 -0.5582547     -8.5890502E-02 -4.6000001E-03   100.7874      -1.570870    
 -0.5582547     -8.5890502E-02 -4.6000001E-03   123.3802      -1.570856    
 -0.4408751     -0.1151856     -0.1500000       123.3802      -1.570856    
 -0.5463294     -0.1429575     -4.6000001E-03   123.3802      -1.570856    
 -0.5582547     -8.5890502E-02 -4.6000001E-03   123.3802      -1.570856    
 -0.5463294     -0.1429575     -4.6000001E-03   154.7745      -1.570843    
 -0.4408751     -0.1151856     -0.1500000       154.7745      -1.570843    
 -0.4265597     -0.1600282     -0.1500000       154.7745      -1.570843    
 -0.5463294     -0.1429575     -4.6000001E-03   154.7745      -1.570843    
 -0.5463294     -0.1429575     -4.6000001E-03   179.8642      -1.570836    
 -0.4265597     -0.1600282     -0.1500000       179.8642      -1.570836    
 -0.5285996     -0.1984958     -4.6000001E-03   179.8642      -1.570836    
 -0.5463294     -0.1429575     -4.6000001E-03   179.8642      -1.570836    
 -0.5285996     -0.1984958     -4.6000001E-03   207.1409      -1.570830    
 -0.4265597     -0.1600282     -0.1500000       207.1409      -1.570830    
 -0.4077095     -0.2031613     -0.1500000       207.1409      -1.570830    
 -0.5285996     -0.1984958     -4.6000001E-03   207.1409      -1.570830    
 -0.5285996     -0.1984958     -4.6000001E-03   234.4646      -1.570826    
 -0.4077095     -0.2031613     -0.1500000       234.4646      -1.570826    
 -0.5052533     -0.2519168     -4.6000001E-03   234.4646      -1.570826    
 -0.5285996     -0.1984958     -4.6000001E-03   234.4646      -1.570826    
 -0.5052533     -0.2519168     -4.6000001E-03   257.3210      -1.570823    
 -0.4077095     -0.2031613     -0.1500000       257.3210      -1.570823    
 -0.3845242     -0.2441275     -0.1500000       257.3210      -1.570823    
 -0.5052533     -0.2519168     -4.6000001E-03   257.3210      -1.570823    
 -0.5052533     -0.2519168     -4.6000001E-03   286.5892      -1.570820    
 -0.3845242     -0.2441275     -0.1500000       286.5892      -1.570820    
 -0.4765379     -0.3026542     -4.6000001E-03   286.5892      -1.570820    
 -0.5052533     -0.2519168     -4.6000001E-03   286.5892      -1.570820    
 -0.4765379     -0.3026542     -4.6000001E-03   304.7724      -1.570818    
 -0.3845242     -0.2441275     -0.1500000       304.7724      -1.570818    
 -0.3572496     -0.2824926     -0.1500000       304.7724      -1.570818    
 -0.4765379     -0.3026542     -4.6000001E-03   304.7724      -1.570818    
 -0.4765379     -0.3026542     -4.6000001E-03   335.6765      -1.570816    
 -0.3572496     -0.2824926     -0.1500000       335.6765      -1.570816    
 -0.4427578     -0.3501701     -4.6000001E-03   335.6765      -1.570816    
 -0.4765379     -0.3026542     -4.6000001E-03   335.6765      -1.570816    
 -0.4427578     -0.3501701     -4.6000001E-03   348.9940      -1.570815    
 -0.3572496     -0.2824926     -0.1500000       348.9940      -1.570815    
 -0.3261748     -0.3178501     -0.1500000       348.9940      -1.570815    
 -0.4427578     -0.3501701     -4.6000001E-03   348.9940      -1.570815    
 -0.4427578     -0.3501701     -4.6000001E-03   381.2074      -1.570813    
 -0.3261748     -0.3178501     -0.1500000       381.2074      -1.570813    
 -0.4042712     -0.3939609     -4.6000001E-03   381.2074      -1.570813    
 -0.4427578     -0.3501701     -4.6000001E-03   381.2074      -1.570813    
 -0.4042712     -0.3939609     -4.6000001E-03   389.5171      -1.570813    
 -0.3261748     -0.3178501     -0.1500000       389.5171      -1.570813    
 -0.2916292     -0.3498249     -0.1500000       389.5171      -1.570813    
 -0.4042712     -0.3939609     -4.6000001E-03   389.5171      -1.570813    
 -0.4042712     -0.3939609     -4.6000001E-03   422.6990      -1.570811    
 -0.2916292     -0.3498249     -0.1500000       422.6990      -1.570811    
 -0.3614859     -0.4335623     -4.6000001E-03   422.6990      -1.570811    
 -0.4042712     -0.3939609     -4.6000001E-03   422.6990      -1.570811    
 -0.3614859     -0.4335623     -4.6000001E-03   425.9083      -1.570811    
 -0.2916292     -0.3498249     -0.1500000       425.9083      -1.570811    
 -0.2539790     -0.3780783     -0.1500000       425.9083      -1.570811    
 -0.3614859     -0.4335623     -4.6000001E-03   425.9083      -1.570811    
 -0.3614859     -0.4335623     -4.6000001E-03   459.7065      -1.570810    
 -0.2539790     -0.3780783     -0.1500000       459.7065      -1.570810    
 -0.3148555     -0.4685546     -4.6000001E-03   459.7065      -1.570810    
 -0.3614859     -0.4335623     -4.6000001E-03   459.7065      -1.570810    
 -0.3148555     -0.4685546     -4.6000001E-03   457.7830      -1.570810    
 -0.2539790     -0.3780783     -0.1500000       457.7830      -1.570810    
 -0.2136233     -0.4023107     -0.1500000       457.7830      -1.570810    
 -0.3148555     -0.4685546     -4.6000001E-03   457.7830      -1.570810    
 -0.3148555     -0.4685546     -4.6000001E-03   491.8389      -1.570809    
 -0.2136233     -0.4023107     -0.1500000       491.8389      -1.570809    
 -0.2648743     -0.4985668     -4.6000001E-03   491.8389      -1.570809    
 -0.3148555     -0.4685546     -4.6000001E-03   491.8389      -1.570809    
 -0.2648743     -0.4985668     -4.6000001E-03   484.8028      -1.570809    
 -0.2136233     -0.4023107     -0.1500000       484.8028      -1.570809    
 -0.1709900     -0.4222653     -0.1500000       484.8028      -1.570809    
 -0.2648743     -0.4985668     -4.6000001E-03   484.8028      -1.570809    
 -0.2648743     -0.4985668     -4.6000001E-03   518.7567      -1.570808    
 -0.1709900     -0.4222653     -0.1500000       518.7567      -1.570808    
 -0.2120721     -0.5232809     -4.6000001E-03   518.7567      -1.570808    
 -0.2648743     -0.4985668     -4.6000001E-03   518.7567      -1.570808    
 -0.2120721     -0.5232809     -4.6000001E-03   506.6826      -1.570808    
 -0.1709900     -0.4222653     -0.1500000       506.6826      -1.570808    
 -0.1265308     -0.4377305     -0.1500000       506.6826      -1.570808    
 -0.2120721     -0.5232809     -4.6000001E-03   506.6826      -1.570808    
 -0.2120721     -0.5232809     -4.6000001E-03   540.1747      -1.570807    
 -0.1265308     -0.4377305     -0.1500000       540.1747      -1.570807    
 -0.1570087     -0.5424348     -4.6000001E-03   540.1747      -1.570807    
 -0.2120721     -0.5232809     -4.6000001E-03   540.1747      -1.570807    
 -0.1570087     -0.5424348     -4.6000001E-03   523.1890      -1.570808    
 -0.1265308     -0.4377305     -0.1500000       523.1890      -1.570808    
 -8.0717102E-02 -0.4485424     -0.1500000       523.1890      -1.570808    
 -0.1570087     -0.5424348     -4.6000001E-03   523.1890      -1.570808    
 -0.1570087     -0.5424348     -4.6000001E-03   555.8647      -1.570807    
 -8.0717102E-02 -0.4485424     -0.1500000       555.8647      -1.570807    
 -0.1002677     -0.5558256     -4.6000001E-03   555.8647      -1.570807    
 -0.1570087     -0.5424348     -4.6000001E-03   555.8647      -1.570807    
 -0.1002677     -0.5558256     -4.6000001E-03   534.1476      -1.570807    
 -8.0717102E-02 -0.4485424     -0.1500000       534.1476      -1.570807    
 -3.4034599E-02 -0.4545864     -0.1500000       534.1476      -1.570807    
 -0.1002677     -0.5558256     -4.6000001E-03   534.1476      -1.570807    
 -0.1002677     -0.5558256     -4.6000001E-03   565.6589      -1.570807    
 -3.4034599E-02 -0.4545864     -0.1500000       565.6589      -1.570807    
 -4.2450599E-02 -0.5633112     -4.6000001E-03   565.6589      -1.570807    
 -0.1002677     -0.5558256     -4.6000001E-03   565.6589      -1.570807    
 -4.2450599E-02 -0.5633112     -4.6000001E-03   539.4410      -1.570807    
 -3.4034599E-02 -0.4545864     -0.1500000       539.4410      -1.570807    
  1.3022000E-02 -0.4557984     -0.1500000       539.4410      -1.570807    
 -4.2450599E-02 -0.5633112     -4.6000001E-03   539.4410      -1.570807    
 -4.2450599E-02 -0.5633112     -4.6000001E-03   569.4563      -1.570807    
  1.3022000E-02 -0.4557984     -0.1500000       569.4563      -1.570807    
  1.5829800E-02 -0.5648122     -4.6000001E-03   569.4563      -1.570807    
 -4.2450599E-02 -0.5633112     -4.6000001E-03   569.4563      -1.570807    
  1.5829800E-02 -0.5648122     -4.6000001E-03   539.0154      -1.570807    
  1.3022000E-02 -0.4557984     -0.1500000       539.0154      -1.570807    
  5.9953801E-02 -0.4521656     -0.1500000       539.0154      -1.570807    
  1.5829800E-02 -0.5648122     -4.6000001E-03   539.0154      -1.570807    
  1.5829800E-02 -0.5648122     -4.6000001E-03   567.2139      -1.570807    
  5.9953801E-02 -0.4521656     -0.1500000       567.2139      -1.570807    
  7.3955603E-02 -0.5603129     -4.6000001E-03   567.2139      -1.570807    
  1.5829800E-02 -0.5648122     -4.6000001E-03   567.2139      -1.570807    
  7.3955603E-02 -0.5603129     -4.6000001E-03   532.8725      -1.570808    
  5.9953801E-02 -0.4521656     -0.1500000       532.8725      -1.570808    
  0.1062633     -0.4437265     -0.1500000       532.8725      -1.570808    
  7.3955603E-02 -0.5603129     -4.6000001E-03   532.8725      -1.570808    
  7.3955603E-02 -0.5603129     -4.6000001E-03   558.9576      -1.570807    
  0.1062633     -0.4437265     -0.1500000       558.9576      -1.570807    
  0.1313107     -0.5498609     -4.6000001E-03   558.9576      -1.570807    
  7.3955603E-02 -0.5603129     -4.6000001E-03   558.9576      -1.570807    
  0.1313107     -0.5498609     -4.6000001E-03   521.0790      -1.570808    
  0.1062633     -0.4437265     -0.1500000       521.0790      -1.570808    
  0.1514596     -0.4305705     -0.1500000       521.0790      -1.570808    
  0.1313107     -0.5498609     -4.6000001E-03   521.0790      -1.570808    
  0.1313107     -0.5498609     -4.6000001E-03   544.7736      -1.570807    
  0.1514596     -0.4305705     -0.1500000       544.7736      -1.570807    
  0.1872871     -0.5335670     -4.6000001E-03   544.7736      -1.570807    
  0.1313107     -0.5498609     -4.6000001E-03   544.7736      -1.570807    
  0.1872871     -0.5335670     -4.6000001E-03   503.7599      -1.570808    
  0.1514596     -0.4305705     -0.1500000       503.7599      -1.570808    
  0.1950637     -0.4128371     -0.1500000       503.7599      -1.570808    
  0.1872871     -0.5335670     -4.6000001E-03   503.7599      -1.570808    
  0.1872871     -0.5335670     -4.6000001E-03   524.8128      -1.570808    
  0.1950637     -0.4128371     -0.1500000       524.8128      -1.570808    
  0.2412916     -0.5116039     -4.6000001E-03   524.8128      -1.570808    
  0.1872871     -0.5335670     -4.6000001E-03   524.8128      -1.570808    
  0.2412916     -0.5116039     -4.6000001E-03   481.0984      -1.570809    
  0.1950637     -0.4128371     -0.1500000       481.0984      -1.570809    
  0.2366133     -0.3907142     -0.1500000       481.0984      -1.570809    
  0.2412916     -0.5116039     -4.6000001E-03   481.0984      -1.570809    
  0.2412916     -0.5116039     -4.6000001E-03   499.2865      -1.570809    
  0.2366133     -0.3907142     -0.1500000       499.2865      -1.570809    
  0.2927515     -0.4842044     -4.6000001E-03   499.2865      -1.570809    
  0.2412916     -0.5116039     -4.6000001E-03   499.2865      -1.570809    
  0.2927515     -0.4842044     -4.6000001E-03   453.3353      -1.570810    
  0.2366133     -0.3907142     -0.1500000       453.3353      -1.570810    
  0.2756680     -0.3644365     -0.1500000       453.3353      -1.570810    
  0.2927515     -0.4842044     -4.6000001E-03   453.3353      -1.570810    
  0.2927515     -0.4842044     -4.6000001E-03   468.4662      -1.570809    
  0.2756680     -0.3644365     -0.1500000       468.4662      -1.570809    
  0.3411214     -0.4516589     -4.6000001E-03   468.4662      -1.570809    
  0.2927515     -0.4842044     -4.6000001E-03   468.4662      -1.570809    
  0.3411214     -0.4516589     -4.6000001E-03   420.7640      -1.570811    
  0.2756680     -0.3644365     -0.1500000       420.7640      -1.570811    
  0.3118138     -0.3342824     -0.1500000       420.7640      -1.570811    
  0.3411214     -0.4516589     -4.6000001E-03   420.7640      -1.570811    
  0.3411214     -0.4516589     -4.6000001E-03   432.6777      -1.570811    
  0.3118138     -0.3342824     -0.1500000       432.6777      -1.570811    
  0.3858885     -0.4143126     -4.6000001E-03   432.6777      -1.570811    
  0.3411214     -0.4516589     -4.6000001E-03   432.6777      -1.570811    
  0.3858885     -0.4143126     -4.6000001E-03   383.7302      -1.570813    
  0.3118138     -0.3342824     -0.1500000       383.7302      -1.570813    
  0.3446676     -0.3005715     -0.1500000       383.7302      -1.570813    
  0.3858885     -0.4143126     -4.6000001E-03   383.7302      -1.570813    
  0.3858885     -0.4143126     -4.6000001E-03   392.3006      -1.570813    
  0.3446676     -0.3005715     -0.1500000       392.3006      -1.570813    
  0.4265785     -0.3725611     -4.6000001E-03   392.3006      -1.570813    
  0.3858885     -0.4143126     -4.6000001E-03   392.3006      -1.570813    
  0.4265785     -0.3725611     -4.6000001E-03   342.6268      -1.570816    
  0.3446676     -0.3005715     -0.1500000       342.6268      -1.570816    
  0.3738810     -0.2636613     -0.1500000       342.6268      -1.570816    
  0.4265785     -0.3725611     -4.6000001E-03   342.6268      -1.570816    
  0.4265785     -0.3725611     -4.6000001E-03   347.7621      -1.570815    
  0.3738810     -0.2636613     -0.1500000       347.7621      -1.570815    
  0.4627600     -0.3268472     -4.6000001E-03   347.7621      -1.570815    
  0.4265785     -0.3725611     -4.6000001E-03   347.7621      -1.570815    
  0.4627600     -0.3268472     -4.6000001E-03   297.8888      -1.570819    
  0.3738810     -0.2636613     -0.1500000       297.8888      -1.570819    
  0.3991444     -0.2239430     -0.1500000       297.8888      -1.570819    
  0.4627600     -0.3268472     -4.6000001E-03   297.8888      -1.570819    
  0.4627600     -0.3268472     -4.6000001E-03   299.5346      -1.570819    
  0.3991444     -0.2239430     -0.1500000       299.5346      -1.570819    
  0.4940490     -0.2776553     -4.6000001E-03   299.5346      -1.570819    
  0.4627600     -0.3268472     -4.6000001E-03   299.5346      -1.570819    
  0.4940490     -0.2776553     -4.6000001E-03   249.9907      -1.570824    
  0.3991444     -0.2239430     -0.1500000       249.9907      -1.570824    
  0.4201901     -0.1818375     -0.1500000       249.9907      -1.570824    
  0.4940490     -0.2776553     -4.6000001E-03   249.9907      -1.570824    
  0.4940490     -0.2776553     -4.6000001E-03   248.1307      -1.570824    
  0.4201901     -0.1818375     -0.1500000       248.1307      -1.570824    
  0.5201140     -0.2255070     -4.6000001E-03   248.1307      -1.570824    
  0.4940490     -0.2776553     -4.6000001E-03   248.1307      -1.570824    
  0.5201140     -0.2255070     -4.6000001E-03   199.4409      -1.570832    
  0.4201901     -0.1818375     -0.1500000       199.4409      -1.570832    
  0.4367950     -0.1377913     -0.1500000       199.4409      -1.570832    
  0.5201140     -0.2255070     -4.6000001E-03   199.4409      -1.570832    
  0.5201140     -0.2255070     -4.6000001E-03   194.0957      -1.570833    
  0.4367950     -0.1377913     -0.1500000       194.0957      -1.570833    
  0.5406800     -0.1709550     -4.6000001E-03   194.0957      -1.570833    
  0.5201140     -0.2255070     -4.6000001E-03   194.0957      -1.570833    
  0.5406800     -0.1709550     -4.6000001E-03   146.7737      -1.570846    
  0.4367950     -0.1377913     -0.1500000       146.7737      -1.570846    
  0.4487830     -9.2271201E-02 -0.1500000       146.7737      -1.570846    
  0.5406800     -0.1709550     -4.6000001E-03   146.7737      -1.570846    
  0.5406800     -0.1709550     -4.6000001E-03   137.9982      -1.570849    
  0.4487830     -9.2271201E-02 -0.1500000       137.9982      -1.570849    
  0.5555270     -0.1145776     -4.6000001E-03   137.9982      -1.570849    
  0.5406800     -0.1709550     -4.6000001E-03   137.9982      -1.570849    
  0.5555270     -0.1145776     -4.6000001E-03   92.54846      -1.570876    
  0.4487830     -9.2271201E-02 -0.1500000       92.54846      -1.570876    
  0.4560270     -4.5759700E-02 -0.1500000       92.54846      -1.570876    
  0.5555270     -0.1145776     -4.6000001E-03   92.54846      -1.570876    
  0.5555270     -0.1145776     -4.6000001E-03   80.43772      -1.570889    
  0.4560270     -4.5759700E-02 -0.1500000       80.43772      -1.570889    
  0.5644990     -5.6972399E-02 -4.6000001E-03   80.43772      -1.570889    
  0.5555270     -0.1145776     -4.6000001E-03   80.43772      -1.570889    
  0.5644990     -5.6972399E-02 -4.6000001E-03   37.33974      -1.571000    
  0.4560270     -4.5759700E-02 -0.1500000       37.33974      -1.571000    
  0.4584500      1.2500000E-03 -0.1500000       37.33974      -1.571000    
  0.5644990     -5.6972399E-02 -4.6000001E-03   37.33974      -1.571000    
  0.5644990     -5.6972399E-02 -4.6000001E-03   22.02105      -1.571144    
  0.4584500      1.2500000E-03 -0.1500000       22.02105      -1.571144    
  0.5675000      1.2500000E-03 -4.6000001E-03   22.02105      -1.571144    
  0.5644990     -5.6972399E-02 -4.6000001E-03   22.02105      -1.571144    
  0.5675000      1.2500000E-03 -4.6000001E-03   18.26622       1.571222    
  0.4584500      1.2500000E-03 -0.1500000       18.26622       1.571222    
  0.4560270      4.8259798E-02 -0.1500000       18.26622       1.571222    
  0.5675000      1.2500000E-03 -4.6000001E-03   18.26622       1.571222    
  0.5675000      1.2500000E-03 -4.6000001E-03   36.63023       1.571011    
  0.4560270      4.8259798E-02 -0.1500000       36.63023       1.571011    
  0.5644990      5.9472401E-02 -4.6000001E-03   36.63023       1.571011    
  0.5675000      1.2500000E-03 -4.6000001E-03   36.63023       1.571011    
  0.5644990      5.9472401E-02 -4.6000001E-03   73.68159       1.570904    
  0.4560270      4.8259798E-02 -0.1500000       73.68159       1.570904    
  0.4487830      9.4771199E-02 -0.1500000       73.68159       1.570904    
  0.5644990      5.9472401E-02 -4.6000001E-03   73.68159       1.570904    
  0.5644990      5.9472401E-02 -4.6000001E-03   94.89658       1.570881    
  0.4487830      9.4771199E-02 -0.1500000       94.89658       1.570881    
  0.5555270      0.1170776     -4.6000001E-03   94.89658       1.570881    
  0.5644990      5.9472401E-02 -4.6000001E-03   94.89658       1.570881    
  0.5555270      0.1170776     -4.6000001E-03   128.3180       1.570860    
  0.4487830      9.4771199E-02 -0.1500000       128.3180       1.570860    
  0.4367950      0.1402913     -0.1500000       128.3180       1.570860    
  0.5555270      0.1170776     -4.6000001E-03   128.3180       1.570860    
  0.5555270      0.1170776     -4.6000001E-03   152.1578       1.570850    
  0.4367950      0.1402913     -0.1500000       152.1578       1.570850    
  0.5406800      0.1734551     -4.6000001E-03   152.1578       1.570850    
  0.5555270      0.1170776     -4.6000001E-03   152.1578       1.570850    
  0.5406800      0.1734551     -4.6000001E-03   181.5967       1.570842    
  0.4367950      0.1402913     -0.1500000       181.5967       1.570842    
  0.4201901      0.1843376     -0.1500000       181.5967       1.570842    
  0.5406800      0.1734551     -4.6000001E-03   181.5967       1.570842    
  0.5406800      0.1734551     -4.6000001E-03   207.8102       1.570837    
  0.4201901      0.1843376     -0.1500000       207.8102       1.570837    
  0.5201140      0.2280070     -4.6000001E-03   207.8102       1.570837    
  0.5406800      0.1734551     -4.6000001E-03   207.8102       1.570837    
  0.5201140      0.2280070     -4.6000001E-03   232.9524       1.570833    
  0.4201901      0.1843376     -0.1500000       232.9524       1.570833    
  0.3991444      0.2264430     -0.1500000       232.9524       1.570833    
  0.5201140      0.2280070     -4.6000001E-03   232.9524       1.570833    
  0.5201140      0.2280070     -4.6000001E-03   261.2594       1.570829    
  0.3991444      0.2264430     -0.1500000       261.2594       1.570829    
  0.4940490      0.2801554     -4.6000001E-03   261.2594       1.570829    
  0.5201140      0.2280070     -4.6000001E-03   261.2594       1.570829    
  0.4940490      0.2801554     -4.6000001E-03   281.8405       1.570827    
  0.3991444      0.2264430     -0.1500000       281.8405       1.570827    
  0.3738810      0.2661614     -0.1500000       281.8405       1.570827    
  0.4940490      0.2801554     -4.6000001E-03   281.8405       1.570827    
  0.4940490      0.2801554     -4.6000001E-03   311.9419       1.570824    
  0.3738810      0.2661614     -0.1500000       311.9419       1.570824    
  0.4627600      0.3293472     -4.6000001E-03   311.9419       1.570824    
  0.4940490      0.2801554     -4.6000001E-03   311.9419       1.570824    
  0.4627600      0.3293472     -4.6000001E-03   327.7446       1.570823    
  0.3738810      0.2661614     -0.1500000       327.7446       1.570823    
  0.3446676      0.3030716     -0.1500000       327.7446       1.570823    
  0.4627600      0.3293472     -4.6000001E-03   327.7446       1.570823    
  0.4627600      0.3293472     -4.6000001E-03   359.3207       1.570821    
  0.3446676      0.3030716     -0.1500000       359.3207       1.570821    
  0.4265785      0.3750612     -4.6000001E-03   359.3207       1.570821    
  0.4627600      0.3293472     -4.6000001E-03   359.3207       1.570821    
  0.4265785      0.3750612     -4.6000001E-03   370.1769       1.570820    
  0.3446676      0.3030716     -0.1500000       370.1769       1.570820    
  0.3118138      0.3367824     -0.1500000       370.1769       1.570820    
  0.4265785      0.3750612     -4.6000001E-03   370.1769       1.570820    
  0.4265785      0.3750612     -4.6000001E-03   402.8928       1.570819    
  0.3118138      0.3367824     -0.1500000       402.8928       1.570819    
  0.3858885      0.4168126     -4.6000001E-03   402.8928       1.570819    
  0.4265785      0.3750612     -4.6000001E-03   402.8928       1.570819    
  0.3858885      0.4168126     -4.6000001E-03   408.6873       1.570818    
  0.3118138      0.3367824     -0.1500000       408.6873       1.570818    
  0.2756680      0.3669365     -0.1500000       408.6873       1.570818    
  0.3858885      0.4168126     -4.6000001E-03   408.6873       1.570818    
  0.3858885      0.4168126     -4.6000001E-03   442.1964       1.570817    
  0.2756680      0.3669365     -0.1500000       442.1964       1.570817    
  0.3411214      0.4541590     -4.6000001E-03   442.1964       1.570817    
  0.3858885      0.4168126     -4.6000001E-03   442.1964       1.570817    
  0.3411214      0.4541590     -4.6000001E-03   442.8678       1.570817    
  0.2756680      0.3669365     -0.1500000       442.8678       1.570817    
  0.2366133      0.3932143     -0.1500000       442.8678       1.570817    
  0.3411214      0.4541590     -4.6000001E-03   442.8678       1.570817    
  0.3411214      0.4541590     -4.6000001E-03   476.8156       1.570816    
  0.2366133      0.3932143     -0.1500000       476.8156       1.570816    
  0.2927515      0.4867040     -4.6000001E-03   476.8156       1.570816    
  0.3411214      0.4541590     -4.6000001E-03   476.8156       1.570816    
  0.2927515      0.4867040     -4.6000001E-03   472.3563       1.570816    
  0.2366133      0.3932143     -0.1500000       472.3563       1.570816    
  0.1950637      0.4153371     -0.1500000       472.3563       1.570816    
  0.2927515      0.4867040     -4.6000001E-03   472.3563       1.570816    
  0.2927515      0.4867040     -4.6000001E-03   506.3819       1.570815    
  0.1950637      0.4153371     -0.1500000       506.3819       1.570815    
  0.2412916      0.5141040     -4.6000001E-03   506.3819       1.570815    
  0.2927515      0.4867040     -4.6000001E-03   506.3819       1.570815    
  0.2412916      0.5141040     -4.6000001E-03   496.8397       1.570815    
  0.1950637      0.4153371     -0.1500000       496.8397       1.570815    
  0.1514596      0.4330705     -0.1500000       496.8397       1.570815    
  0.2412916      0.5141040     -4.6000001E-03   496.8397       1.570815    
  0.2412916      0.5141040     -4.6000001E-03   530.5828       1.570814    
  0.1514596      0.4330705     -0.1500000       530.5828       1.570814    
  0.1872871      0.5360670     -4.6000001E-03   530.5828       1.570814    
  0.2412916      0.5141040     -4.6000001E-03   530.5828       1.570814    
  0.1872871      0.5360670     -4.6000001E-03   516.0590       1.570814    
  0.1514596      0.4330705     -0.1500000       516.0590       1.570814    
  0.1062633      0.4462270     -0.1500000       516.0590       1.570814    
  0.1872871      0.5360670     -4.6000001E-03   516.0590       1.570814    
  0.1872871      0.5360670     -4.6000001E-03   549.1612       1.570814    
  0.1062633      0.4462270     -0.1500000       549.1612       1.570814    
  0.1313107      0.5523610     -4.6000001E-03   549.1612       1.570814    
  0.1872871      0.5360670     -4.6000001E-03   549.1612       1.570814    
  0.1313107      0.5523610     -4.6000001E-03   529.8107       1.570814    
  0.1062633      0.4462270     -0.1500000       529.8107       1.570814    
  5.9953801E-02  0.4546660     -0.1500000       529.8107       1.570814    
  0.1313107      0.5523610     -4.6000001E-03   529.8107       1.570814    
  0.1313107      0.5523610     -4.6000001E-03   561.9214       1.570813    
  5.9953801E-02  0.4546660     -0.1500000       561.9214       1.570813    
  7.3955603E-02  0.5628130     -4.6000001E-03   561.9214       1.570813    
  0.1313107      0.5523610     -4.6000001E-03   561.9214       1.570813    
  7.3955603E-02  0.5628130     -4.6000001E-03   537.9485       1.570814    
  5.9953801E-02  0.4546660     -0.1500000       537.9485       1.570814    
  1.3022000E-02  0.4582980     -0.1500000       537.9485       1.570814    
  7.3955603E-02  0.5628130     -4.6000001E-03   537.9485       1.570814    
  7.3955603E-02  0.5628130     -4.6000001E-03   568.7273       1.570813    
  1.3022000E-02  0.4582980     -0.1500000       568.7273       1.570813    
  1.5829800E-02  0.5673120     -4.6000001E-03   568.7273       1.570813    
  7.3955603E-02  0.5628130     -4.6000001E-03   568.7273       1.570813    
  1.5829800E-02  0.5673120     -4.6000001E-03   540.3859       1.570814    
  1.3022000E-02  0.4582980     -0.1500000       540.3859       1.570814    
 -3.4034599E-02  0.4570860     -0.1500000       540.3859       1.570814    
  1.5829800E-02  0.5673120     -4.6000001E-03   540.3859       1.570814    
  1.5829800E-02  0.5673120     -4.6000001E-03   569.5066       1.570813    
 -3.4034599E-02  0.4570860     -0.1500000       569.5066       1.570813    
 -4.2450599E-02  0.5658110     -4.6000001E-03   569.5066       1.570813    
  1.5829800E-02  0.5673120     -4.6000001E-03   569.5066       1.570813    
 -4.2450599E-02  0.5658110     -4.6000001E-03   537.0974       1.570814    
 -3.4034599E-02  0.4570860     -0.1500000       537.0974       1.570814    
 -8.0717102E-02  0.4510420     -0.1500000       537.0974       1.570814    
 -4.2450599E-02  0.5658110     -4.6000001E-03   537.0974       1.570814    
 -4.2450599E-02  0.5658110     -4.6000001E-03   564.2509       1.570813    
 -8.0717102E-02  0.4510420     -0.1500000       564.2509       1.570813    
 -0.1002677      0.5583260     -4.6000001E-03   564.2509       1.570813    
 -4.2450599E-02  0.5658110     -4.6000001E-03   564.2509       1.570813    
 -0.1002677      0.5583260     -4.6000001E-03   528.1162       1.570814    
 -8.0717102E-02  0.4510420     -0.1500000       528.1162       1.570814    
 -0.1265308      0.4402310     -0.1500000       528.1162       1.570814    
 -0.1002677      0.5583260     -4.6000001E-03   528.1162       1.570814    
 -0.1002677      0.5583260     -4.6000001E-03   553.0139       1.570814    
 -0.1265308      0.4402310     -0.1500000       553.0139       1.570814    
 -0.1570087      0.5449350     -4.6000001E-03   553.0139       1.570814    
 -0.1002677      0.5583260     -4.6000001E-03   553.0139       1.570814    
 -0.1570087      0.5449350     -4.6000001E-03   513.5408       1.570815    
 -0.1265308      0.4402310     -0.1500000       513.5408       1.570815    
 -0.1709900      0.4247653     -0.1500000       513.5408       1.570815    
 -0.1570087      0.5449350     -4.6000001E-03   513.5408       1.570815    
 -0.1570087      0.5449350     -4.6000001E-03   535.9180       1.570814    