 VARIABLES="X" "Y" "Z" "abs(p) (Pa)" "angle(p) (rad)"
ZONE N=    984,E =     246,F=FEPOINT,ET=QUADRILATERAL
 -0.4559500      1.2500000E-03 -0.1500000       650.7856       1.570781    
 -0.4553438     -2.2286100E-02 -0.1500000       650.7856       1.570781    
 -0.5642492     -2.7899800E-02 -4.6000001E-03   650.7856       1.570781    
 -0.4559500      1.2500000E-03 -0.1500000       650.7856       1.570781    
 -0.5642492     -2.7899800E-02 -4.6000001E-03   650.6520       1.570781    
 -0.4553438     -2.2286100E-02 -0.1500000       650.6520       1.570781    
 -0.4505038     -6.9108702E-02 -0.1500000       650.6520       1.570781    
 -0.5642492     -2.7899800E-02 -4.6000001E-03   650.6520       1.570781    
 -0.5642492     -2.7899800E-02 -4.6000001E-03   682.8652       1.570782    
 -0.4505038     -6.9108702E-02 -0.1500000       682.8652       1.570782    
 -0.5582547     -8.5890502E-02 -4.6000001E-03   682.8652       1.570782    
 -0.5642492     -2.7899800E-02 -4.6000001E-03   682.8652       1.570782    
 -0.5582547     -8.5890502E-02 -4.6000001E-03   640.6996       1.570781    
 -0.4505038     -6.9108702E-02 -0.1500000       640.6996       1.570781    
 -0.4408751     -0.1151856     -0.1500000       640.6996       1.570781    
 -0.5582547     -8.5890502E-02 -4.6000001E-03   640.6996       1.570781    
 -0.5582547     -8.5890502E-02 -4.6000001E-03   671.0309       1.570782    
 -0.4408751     -0.1151856     -0.1500000       671.0309       1.570782    
 -0.5463294     -0.1429575     -4.6000001E-03   671.0309       1.570782    
 -0.5582547     -8.5890502E-02 -4.6000001E-03   671.0309       1.570782    
 -0.5463294     -0.1429575     -4.6000001E-03   624.6609       1.570780    
 -0.4408751     -0.1151856     -0.1500000       624.6609       1.570780    
 -0.4265597     -0.1600282     -0.1500000       624.6609       1.570780    
 -0.5463294     -0.1429575     -4.6000001E-03   624.6609       1.570780    
 -0.5463294     -0.1429575     -4.6000001E-03   652.2944       1.570781    
 -0.4265597     -0.1600282     -0.1500000       652.2944       1.570781    
 -0.5285996     -0.1984958     -4.6000001E-03   652.2944       1.570781    
 -0.5463294     -0.1429575     -4.6000001E-03   652.2944       1.570781    
 -0.5285996     -0.1984958     -4.6000001E-03   602.1191       1.570779    
 -0.4265597     -0.1600282     -0.1500000       602.1191       1.570779    
 -0.4077095     -0.2031613     -0.1500000       602.1191       1.570779    
 -0.5285996     -0.1984958     -4.6000001E-03   602.1191       1.570779    
 -0.5285996     -0.1984958     -4.6000001E-03   626.5081       1.570780    
 -0.4077095     -0.2031613     -0.1500000       626.5081       1.570780    
 -0.5052533     -0.2519168     -4.6000001E-03   626.5081       1.570780    
 -0.5285996     -0.1984958     -4.6000001E-03   626.5081       1.570780    
 -0.5052533     -0.2519168     -4.6000001E-03   573.2043       1.570778    
 -0.4077095     -0.2031613     -0.1500000       573.2043       1.570778    
 -0.3845242     -0.2441275     -0.1500000       573.2043       1.570778    
 -0.5052533     -0.2519168     -4.6000001E-03   573.2043       1.570778    
 -0.5052533     -0.2519168     -4.6000001E-03   594.1113       1.570779    
 -0.3845242     -0.2441275     -0.1500000       594.1113       1.570779    
 -0.4765379     -0.3026542     -4.6000001E-03   594.1113       1.570779    
 -0.5052533     -0.2519168     -4.6000001E-03   594.1113       1.570779    
 -0.4765379     -0.3026542     -4.6000001E-03   538.1762       1.570776    
 -0.3845242     -0.2441275     -0.1500000       538.1762       1.570776    
 -0.3572496     -0.2824926     -0.1500000       538.1762       1.570776    
 -0.4765379     -0.3026542     -4.6000001E-03   538.1762       1.570776    
 -0.4765379     -0.3026542     -4.6000001E-03   555.3672       1.570777    
 -0.3572496     -0.2824926     -0.1500000       555.3672       1.570777    
 -0.4427578     -0.3501701     -4.6000001E-03   555.3672       1.570777    
 -0.4765379     -0.3026542     -4.6000001E-03   555.3672       1.570777    
 -0.4427578     -0.3501701     -4.6000001E-03   497.4598       1.570773    
 -0.3572496     -0.2824926     -0.1500000       497.4598       1.570773    
 -0.3261748     -0.3178501     -0.1500000       497.4598       1.570773    
 -0.4427578     -0.3501701     -4.6000001E-03   497.4598       1.570773    
 -0.4427578     -0.3501701     -4.6000001E-03   510.7633       1.570774    
 -0.3261748     -0.3178501     -0.1500000       510.7633       1.570774    
 -0.4042712     -0.3939609     -4.6000001E-03   510.7633       1.570774    
 -0.4427578     -0.3501701     -4.6000001E-03   510.7633       1.570774    
 -0.4042712     -0.3939609     -4.6000001E-03   451.4670       1.570770    
 -0.3261748     -0.3178501     -0.1500000       451.4670       1.570770    
 -0.2916292     -0.3498249     -0.1500000       451.4670       1.570770    
 -0.4042712     -0.3939609     -4.6000001E-03   451.4670       1.570770    
 -0.4042712     -0.3939609     -4.6000001E-03   460.7313       1.570771    
 -0.2916292     -0.3498249     -0.1500000       460.7313       1.570771    
 -0.3614859     -0.4335623     -4.6000001E-03   460.7313       1.570771    
 -0.4042712     -0.3939609     -4.6000001E-03   460.7313       1.570771    
 -0.3614859     -0.4335623     -4.6000001E-03   400.6219       1.570766    
 -0.2916292     -0.3498249     -0.1500000       400.6219       1.570766    
 -0.2539790     -0.3780783     -0.1500000       400.6219       1.570766    
 -0.3614859     -0.4335623     -4.6000001E-03   400.6219       1.570766    
 -0.3614859     -0.4335623     -4.6000001E-03   405.7546       1.570766    
 -0.2539790     -0.3780783     -0.1500000       405.7546       1.570766    
 -0.3148555     -0.4685546     -4.6000001E-03   405.7546       1.570766    
 -0.3614859     -0.4335623     -4.6000001E-03   405.7546       1.570766    
 -0.3148555     -0.4685546     -4.6000001E-03   345.5947       1.570759    
 -0.2539790     -0.3780783     -0.1500000       345.5947       1.570759    
 -0.2136233     -0.4023107     -0.1500000       345.5947       1.570759    
 -0.3148555     -0.4685546     -4.6000001E-03   345.5947       1.570759    
 -0.3148555     -0.4685546     -4.6000001E-03   346.5149       1.570759    
 -0.2136233     -0.4023107     -0.1500000       346.5149       1.570759    
 -0.2648743     -0.4985668     -4.6000001E-03   346.5149       1.570759    
 -0.3148555     -0.4685546     -4.6000001E-03   346.5149       1.570759    
 -0.2648743     -0.4985668     -4.6000001E-03   286.8775       1.570750    
 -0.2136233     -0.4023107     -0.1500000       286.8775       1.570750    
 -0.1709900     -0.4222653     -0.1500000       286.8775       1.570750    
 -0.2648743     -0.4985668     -4.6000001E-03   286.8775       1.570750    
 -0.2648743     -0.4985668     -4.6000001E-03   283.5976       1.570749    
 -0.1709900     -0.4222653     -0.1500000       283.5976       1.570749    
 -0.2120721     -0.5232809     -4.6000001E-03   283.5976       1.570749    
 -0.2648743     -0.4985668     -4.6000001E-03   283.5976       1.570749    
 -0.2120721     -0.5232809     -4.6000001E-03   225.1144       1.570734    
 -0.1709900     -0.4222653     -0.1500000       225.1144       1.570734    
 -0.1265308     -0.4377305     -0.1500000       225.1144       1.570734    
 -0.2120721     -0.5232809     -4.6000001E-03   225.1144       1.570734    
 -0.2120721     -0.5232809     -4.6000001E-03   217.6695       1.570732    
 -0.1265308     -0.4377305     -0.1500000       217.6695       1.570732    
 -0.1570087     -0.5424348     -4.6000001E-03   217.6695       1.570732    
 -0.2120721     -0.5232809     -4.6000001E-03   217.6695       1.570732    
 -0.1570087     -0.5424348     -4.6000001E-03   160.9612       1.570705    
 -0.1265308     -0.4377305     -0.1500000       160.9612       1.570705    
 -8.0717102E-02 -0.4485424     -0.1500000       160.9612       1.570705    
 -0.1570087     -0.5424348     -4.6000001E-03   160.9612       1.570705    
 -0.1570087     -0.5424348     -4.6000001E-03   149.4300       1.570697    
 -8.0717102E-02 -0.4485424     -0.1500000       149.4300       1.570697    
 -0.1002677     -0.5558256     -4.6000001E-03   149.4300       1.570697    
 -0.1570087     -0.5424348     -4.6000001E-03   149.4300       1.570697    
 -0.1002677     -0.5558256     -4.6000001E-03   95.09777       1.570636    
 -8.0717102E-02 -0.4485424     -0.1500000       95.09777       1.570636    
 -3.4034599E-02 -0.4545864     -0.1500000       95.09777       1.570636    
 -0.1002677     -0.5558256     -4.6000001E-03   95.09777       1.570636    
 -0.1002677     -0.5558256     -4.6000001E-03   79.53779       1.570602    
 -3.4034599E-02 -0.4545864     -0.1500000       79.53779       1.570602    
 -4.2450599E-02 -0.5633112     -4.6000001E-03   79.53779       1.570602    
 -0.1002677     -0.5558256     -4.6000001E-03   79.53779       1.570602    
 -4.2450599E-02 -0.5633112     -4.6000001E-03   28.17504       1.570232    
 -3.4034599E-02 -0.4545864     -0.1500000       28.17504       1.570232    
  1.3022000E-02 -0.4557984     -0.1500000       28.17504       1.570232    
 -4.2450599E-02 -0.5633112     -4.6000001E-03   28.17504       1.570232    
 -4.2450599E-02 -0.5633112     -4.6000001E-03   8.912959       1.568984    
  1.3022000E-02 -0.4557984     -0.1500000       8.912959       1.568984    
  1.5829800E-02 -0.5648122     -4.6000001E-03   8.912959       1.568984    
 -4.2450599E-02 -0.5633112     -4.6000001E-03   8.912959       1.568984    
  1.5829800E-02 -0.5648122     -4.6000001E-03   38.97046      -1.570372    
  1.3022000E-02 -0.4557984     -0.1500000       38.97046      -1.570372    
  5.9953801E-02 -0.4521656     -0.1500000       38.97046      -1.570372    
  1.5829800E-02 -0.5648122     -4.6000001E-03   38.97046      -1.570372    
  1.5829800E-02 -0.5648122     -4.6000001E-03   61.85899      -1.570524    
  5.9953801E-02 -0.4521656     -0.1500000       61.85899      -1.570524    
  7.3955603E-02 -0.5603129     -4.6000001E-03   61.85899      -1.570524    
  1.5829800E-02 -0.5648122     -4.6000001E-03   61.85899      -1.570524    
  7.3955603E-02 -0.5603129     -4.6000001E-03   105.7394      -1.570634    
  5.9953801E-02 -0.4521656     -0.1500000       105.7394      -1.570634    
  0.1062633     -0.4437265     -0.1500000       105.7394      -1.570634    
  7.3955603E-02 -0.5603129     -4.6000001E-03   105.7394      -1.570634    
  7.3955603E-02 -0.5603129     -4.6000001E-03   131.9789      -1.570663    
  0.1062633     -0.4437265     -0.1500000       131.9789      -1.570663    
  0.1313107     -0.5498609     -4.6000001E-03   131.9789      -1.570663    
  7.3955603E-02 -0.5603129     -4.6000001E-03   131.9789      -1.570663    
  0.1313107     -0.5498609     -4.6000001E-03   171.3914      -1.570692    
  0.1062633     -0.4437265     -0.1500000       171.3914      -1.570692    
  0.1514596     -0.4305705     -0.1500000       171.3914      -1.570692    
  0.1313107     -0.5498609     -4.6000001E-03   171.3914      -1.570692    
  0.1313107     -0.5498609     -4.6000001E-03   200.7007      -1.570706    
  0.1514596     -0.4305705     -0.1500000       200.7007      -1.570706    
  0.1872871     -0.5335670     -4.6000001E-03   200.7007      -1.570706    
  0.1313107     -0.5498609     -4.6000001E-03   200.7007      -1.570706    
  0.1872871     -0.5335670     -4.6000001E-03   235.2320      -1.570718    
  0.1514596     -0.4305705     -0.1500000       235.2320      -1.570718    
  0.1950637     -0.4128371     -0.1500000       235.2320      -1.570718    
  0.1872871     -0.5335670     -4.6000001E-03   235.2320      -1.570718    
  0.1872871     -0.5335670     -4.6000001E-03   267.3026      -1.570726    
  0.1950637     -0.4128371     -0.1500000       267.3026      -1.570726    
  0.2412916     -0.5116039     -4.6000001E-03   267.3026      -1.570726    
  0.1872871     -0.5335670     -4.6000001E-03   267.3026      -1.570726    
  0.2412916     -0.5116039     -4.6000001E-03   296.5767      -1.570732    
  0.1950637     -0.4128371     -0.1500000       296.5767      -1.570732    
  0.2366133     -0.3907142     -0.1500000       296.5767      -1.570732    
  0.2412916     -0.5116039     -4.6000001E-03   296.5767      -1.570732    
  0.2412916     -0.5116039     -4.6000001E-03   331.0713      -1.570737    
  0.2366133     -0.3907142     -0.1500000       331.0713      -1.570737    
  0.2927515     -0.4842044     -4.6000001E-03   331.0713      -1.570737    
  0.2412916     -0.5116039     -4.6000001E-03   331.0713      -1.570737    
  0.2927515     -0.4842044     -4.6000001E-03   354.7845      -1.570741    
  0.2366133     -0.3907142     -0.1500000       354.7845      -1.570741    
  0.2756680     -0.3644365     -0.1500000       354.7845      -1.570741    
  0.2927515     -0.4842044     -4.6000001E-03   354.7845      -1.570741    
  0.2927515     -0.4842044     -4.6000001E-03   391.3342      -1.570745    
  0.2756680     -0.3644365     -0.1500000       391.3342      -1.570745    
  0.3411214     -0.4516589     -4.6000001E-03   391.3342      -1.570745    
  0.2927515     -0.4842044     -4.6000001E-03   391.3342      -1.570745    
  0.3411214     -0.4516589     -4.6000001E-03   409.2344      -1.570747    
  0.2756680     -0.3644365     -0.1500000       409.2344      -1.570747    
  0.3118138     -0.3342824     -0.1500000       409.2344      -1.570747    
  0.3411214     -0.4516589     -4.6000001E-03   409.2344      -1.570747    
  0.3411214     -0.4516589     -4.6000001E-03   447.4521      -1.570750    
  0.3118138     -0.3342824     -0.1500000       447.4521      -1.570750    
  0.3858885     -0.4143126     -4.6000001E-03   447.4521      -1.570750    
  0.3411214     -0.4516589     -4.6000001E-03   447.4521      -1.570750    
  0.3858885     -0.4143126     -4.6000001E-03   459.3503      -1.570751    
  0.3118138     -0.3342824     -0.1500000       459.3503      -1.570751    
  0.3446676     -0.3005715     -0.1500000       459.3503      -1.570751    
  0.3858885     -0.4143126     -4.6000001E-03   459.3503      -1.570751    
  0.3858885     -0.4143126     -4.6000001E-03   498.8303      -1.570754    
  0.3446676     -0.3005715     -0.1500000       498.8303      -1.570754    
  0.4265785     -0.3725611     -4.6000001E-03   498.8303      -1.570754    
  0.3858885     -0.4143126     -4.6000001E-03   498.8303      -1.570754    
  0.4265785     -0.3725611     -4.6000001E-03   504.5995      -1.570755    
  0.3446676     -0.3005715     -0.1500000       504.5995      -1.570755    
  0.3738810     -0.2636613     -0.1500000       504.5995      -1.570755    
  0.4265785     -0.3725611     -4.6000001E-03   504.5995      -1.570755    
  0.4265785     -0.3725611     -4.6000001E-03   544.9232      -1.570757    
  0.3738810     -0.2636613     -0.1500000       544.9232      -1.570757    
  0.4627600     -0.3268472     -4.6000001E-03   544.9232      -1.570757    
  0.4265785     -0.3725611     -4.6000001E-03   544.9232      -1.570757    
  0.4627600     -0.3268472     -4.6000001E-03   544.5032      -1.570757    
  0.3738810     -0.2636613     -0.1500000       544.5032      -1.570757    
  0.3991444     -0.2239430     -0.1500000       544.5032      -1.570757    
  0.4627600     -0.3268472     -4.6000001E-03   544.5032      -1.570757    
  0.4627600     -0.3268472     -4.6000001E-03   585.2428      -1.570759    
  0.3991444     -0.2239430     -0.1500000       585.2428      -1.570759    
  0.4940490     -0.2776553     -4.6000001E-03   585.2428      -1.570759    
  0.4627600     -0.3268472     -4.6000001E-03   585.2428      -1.570759    
  0.4940490     -0.2776553     -4.6000001E-03   578.6384      -1.570759    
  0.3991444     -0.2239430     -0.1500000       578.6384      -1.570759    
  0.4201901     -0.1818375     -0.1500000       578.6384      -1.570759    
  0.4940490     -0.2776553     -4.6000001E-03   578.6384      -1.570759    
  0.4940490     -0.2776553     -4.6000001E-03   619.3630      -1.570760    
  0.4201901     -0.1818375     -0.1500000       619.3630      -1.570760    
  0.5201140     -0.2255070     -4.6000001E-03   619.3630      -1.570760    
  0.4940490     -0.2776553     -4.6000001E-03   619.3630      -1.570760    
  0.5201140     -0.2255070     -4.6000001E-03   606.6424      -1.570760    
  0.4201901     -0.1818375     -0.1500000       606.6424      -1.570760    
  0.4367950     -0.1377913     -0.1500000       606.6424      -1.570760    
  0.5201140     -0.2255070     -4.6000001E-03   606.6424      -1.570760    
  0.5201140     -0.2255070     -4.6000001E-03   646.9182      -1.570761    
  0.4367950     -0.1377913     -0.1500000       646.9182      -1.570761    
  0.5406800     -0.1709550     -4.6000001E-03   646.9182      -1.570761    
  0.5201140     -0.2255070     -4.6000001E-03   646.9182      -1.570761    
  0.5406800     -0.1709550     -4.6000001E-03   628.2193      -1.570761    
  0.4367950     -0.1377913     -0.1500000       628.2193      -1.570761    
  0.4487830     -9.2271201E-02 -0.1500000       628.2193      -1.570761    
  0.5406800     -0.1709550     -4.6000001E-03   628.2193      -1.570761    
  0.5406800     -0.1709550     -4.6000001E-03   667.6202      -1.570762    
  0.4487830     -9.2271201E-02 -0.1500000       667.6202      -1.570762    
  0.5555270     -0.1145776     -4.6000001E-03   667.6202      -1.570762    
  0.5406800     -0.1709550     -4.6000001E-03   667.6202      -1.570762    
  0.5555270     -0.1145776     -4.6000001E-03   643.1411      -1.570762    
  0.4487830     -9.2271201E-02 -0.1500000       643.1411      -1.570762    
  0.4560270     -4.5759700E-02 -0.1500000       643.1411      -1.570762    
  0.5555270     -0.1145776     -4.6000001E-03   643.1411      -1.570762    
  0.5555270     -0.1145776     -4.6000001E-03   681.2480      -1.570763    
  0.4560270     -4.5759700E-02 -0.1500000       681.2480      -1.570763    
  0.5644990     -5.6972399E-02 -4.6000001E-03   681.2480      -1.570763    
  0.5555270     -0.1145776     -4.6000001E-03   681.2480      -1.570763    
  0.5644990     -5.6972399E-02 -4.6000001E-03   651.2472      -1.570762    
  0.4560270     -4.5759700E-02 -0.1500000       651.2472      -1.570762    
  0.4584500      1.2500000E-03 -0.1500000       651.2472      -1.570762    
  0.5644990     -5.6972399E-02 -4.6000001E-03   651.2472      -1.570762    
  0.5644990     -5.6972399E-02 -4.6000001E-03   687.6584      -1.570763    
  0.4584500      1.2500000E-03 -0.1500000       687.6584      -1.570763    
  0.5675000      1.2500000E-03 -4.6000001E-03   687.6584      -1.570763    
  0.5644990     -5.6972399E-02 -4.6000001E-03   687.6584      -1.570763    
  0.5675000      1.2500000E-03 -4.6000001E-03   652.4529      -1.570762    
  0.4584500      1.2500000E-03 -0.1500000       652.4529      -1.570762    
  0.4560270      4.8259798E-02 -0.1500000       652.4529      -1.570762    
  0.5675000      1.2500000E-03 -4.6000001E-03   652.4529      -1.570762    
  0.5675000      1.2500000E-03 -4.6000001E-03   686.7811      -1.570763    
  0.4560270      4.8259798E-02 -0.1500000       686.7811      -1.570763    
  0.5644990      5.9472401E-02 -4.6000001E-03   686.7811      -1.570763    
  0.5675000      1.2500000E-03 -4.6000001E-03   686.7811      -1.570763    
  0.5644990      5.9472401E-02 -4.6000001E-03   646.7457      -1.570762    
  0.4560270      4.8259798E-02 -0.1500000       646.7457      -1.570762    
  0.4487830      9.4771199E-02 -0.1500000       646.7457      -1.570762    
  0.5644990      5.9472401E-02 -4.6000001E-03   646.7457      -1.570762    
  0.5644990      5.9472401E-02 -4.6000001E-03   678.6274      -1.570763    
  0.4487830      9.4771199E-02 -0.1500000       678.6274      -1.570763    
  0.5555270      0.1170776     -4.6000001E-03   678.6274      -1.570763    
  0.5644990      5.9472401E-02 -4.6000001E-03   678.6274      -1.570763    
  0.5555270      0.1170776     -4.6000001E-03   634.1866      -1.570761    
  0.4487830      9.4771199E-02 -0.1500000       634.1866      -1.570761    
  0.4367950      0.1402913     -0.1500000       634.1866      -1.570761    
  0.5555270      0.1170776     -4.6000001E-03   634.1866      -1.570761    
  0.5555270      0.1170776     -4.6000001E-03   663.2826      -1.570762    
  0.4367950      0.1402913     -0.1500000       663.2826      -1.570762    
  0.5406800      0.1734551     -4.6000001E-03   663.2826      -1.570762    
  0.5555270      0.1170776     -4.6000001E-03   663.2826      -1.570762    
  0.5406800      0.1734551     -4.6000001E-03   614.9081      -1.570760    
  0.4367950      0.1402913     -0.1500000       614.9081      -1.570760    
  0.4201901      0.1843376     -0.1500000       614.9081      -1.570760    
  0.5406800      0.1734551     -4.6000001E-03   614.9081      -1.570760    
  0.5406800      0.1734551     -4.6000001E-03   640.9098      -1.570761    
  0.4201901      0.1843376     -0.1500000       640.9098      -1.570761    
  0.5201140      0.2280070     -4.6000001E-03   640.9098      -1.570761    
  0.5406800      0.1734551     -4.6000001E-03   640.9098      -1.570761    
  0.5201140      0.2280070     -4.6000001E-03   589.1149      -1.570759    
  0.4201901      0.1843376     -0.1500000       589.1149      -1.570759    
  0.3991444      0.2264430     -0.1500000       589.1149      -1.570759    
  0.5201140      0.2280070     -4.6000001E-03   589.1149      -1.570759    
  0.5201140      0.2280070     -4.6000001E-03   611.7468      -1.570760    
  0.3991444      0.2264430     -0.1500000       611.7468      -1.570760    
  0.4940490      0.2801554     -4.6000001E-03   611.7468      -1.570760    
  0.5201140      0.2280070     -4.6000001E-03   611.7468      -1.570760    
  0.4940490      0.2801554     -4.6000001E-03   557.0794      -1.570758    
  0.3991444      0.2264430     -0.1500000       557.0794      -1.570758    
  0.3738810      0.2661614     -0.1500000       557.0794      -1.570758    
  0.4940490      0.2801554     -4.6000001E-03   557.0794      -1.570758    
  0.4940490      0.2801554     -4.6000001E-03   576.1010      -1.570758    
  0.3738810      0.2661614     -0.1500000       576.1010      -1.570758    
  0.4627600      0.3293472     -4.6000001E-03   576.1010      -1.570758    
  0.4940490      0.2801554     -4.6000001E-03   576.1010      -1.570758    
  0.4627600      0.3293472     -4.6000001E-03   519.1415      -1.570755    
  0.3738810      0.2661614     -0.1500000       519.1415      -1.570755    
  0.3446676      0.3030716     -0.1500000       519.1415      -1.570755    
  0.4627600      0.3293472     -4.6000001E-03   519.1415      -1.570755    
  0.4627600      0.3293472     -4.6000001E-03   534.3520      -1.570756    
  0.3446676      0.3030716     -0.1500000       534.3520      -1.570756    
  0.4265785      0.3750612     -4.6000001E-03   534.3520      -1.570756    
  0.4627600      0.3293472     -4.6000001E-03   534.3520      -1.570756    
  0.4265785      0.3750612     -4.6000001E-03   475.7040      -1.570753    
  0.3446676      0.3030716     -0.1500000       475.7040      -1.570753    
  0.3118138      0.3367824     -0.1500000       475.7040      -1.570753    
  0.4265785      0.3750612     -4.6000001E-03   475.7040      -1.570753    
  0.4265785      0.3750612     -4.6000001E-03   486.9419      -1.570753    
  0.3118138      0.3367824     -0.1500000       486.9419      -1.570753    
  0.3858885      0.4168126     -4.6000001E-03   486.9419      -1.570753    
  0.4265785      0.3750612     -4.6000001E-03   486.9419      -1.570753    
  0.3858885      0.4168126     -4.6000001E-03   427.2277      -1.570749    
  0.3118138      0.3367824     -0.1500000       427.2277      -1.570749    
  0.2756680      0.3669365     -0.1500000       427.2277      -1.570749    
  0.3858885      0.4168126     -4.6000001E-03   427.2277      -1.570749    
  0.3858885      0.4168126     -4.6000001E-03   434.3733      -1.570749    
  0.2756680      0.3669365     -0.1500000       434.3733      -1.570749    
  0.3411214      0.4541590     -4.6000001E-03   434.3733      -1.570749    
  0.3858885      0.4168126     -4.6000001E-03   434.3733      -1.570749    
  0.3411214      0.4541590     -4.6000001E-03   374.2256      -1.570743    
  0.2756680      0.3669365     -0.1500000       374.2256      -1.570743    
  0.2366133      0.3932143     -0.1500000       374.2256      -1.570743    
  0.3411214      0.4541590     -4.6000001E-03   374.2256      -1.570743    
  0.3411214      0.4541590     -4.6000001E-03   377.2029      -1.570744    
  0.2366133      0.3932143     -0.1500000       377.2029      -1.570744    
  0.2927515      0.4867040     -4.6000001E-03   377.2029      -1.570744    
  0.3411214      0.4541590     -4.6000001E-03   377.2029      -1.570744    
  0.2927515      0.4867040     -4.6000001E-03   317.2596      -1.570736    
  0.2366133      0.3932143     -0.1500000       317.2596      -1.570736    
  0.1950637      0.4153371     -0.1500000       317.2596      -1.570736    
  0.2927515      0.4867040     -4.6000001E-03   317.2596      -1.570736    
  0.2927515      0.4867040     -4.6000001E-03   316.0390      -1.570735    
  0.1950637      0.4153371     -0.1500000       316.0390      -1.570735    
  0.2412916      0.5141040     -4.6000001E-03   316.0390      -1.570735    
  0.2927515      0.4867040     -4.6000001E-03   316.0390      -1.570735    
  0.2412916      0.5141040     -4.6000001E-03   256.9358      -1.570724    
  0.1950637      0.4153371     -0.1500000       256.9358      -1.570724    
  0.1514596      0.4330705     -0.1500000       256.9358      -1.570724    
  0.2412916      0.5141040     -4.6000001E-03   256.9358      -1.570724    
  0.2412916      0.5141040     -4.6000001E-03   251.5260      -1.570722    
  0.1514596      0.4330705     -0.1500000       251.5260      -1.570722    
  0.1872871      0.5360670     -4.6000001E-03   251.5260      -1.570722    
  0.2412916      0.5141040     -4.6000001E-03   251.5260      -1.570722    
  0.1872871      0.5360670     -4.6000001E-03   193.8893      -1.570703    
  0.1514596      0.4330705     -0.1500000       193.8893      -1.570703    
  0.1062633      0.4462270     -0.1500000       193.8893      -1.570703    
  0.1872871      0.5360670     -4.6000001E-03   193.8893      -1.570703    
  0.1872871      0.5360670     -4.6000001E-03   184.3522      -1.570699    
  0.1062633      0.4462270     -0.1500000       184.3522      -1.570699    
  0.1313107      0.5523610     -4.6000001E-03   184.3522      -1.570699    
  0.1872871      0.5360670     -4.6000001E-03   184.3522      -1.570699    
  0.1313107      0.5523610     -4.6000001E-03   128.7901      -1.570661    
  0.1062633      0.4462270     -0.1500000       128.7901      -1.570661    
  5.9953801E-02  0.4546660     -0.1500000       128.7901      -1.570661    
  0.1313107      0.5523610     -4.6000001E-03   128.7901      -1.570661    
  0.1313107      0.5523610     -4.6000001E-03   115.2231      -1.570646    
  5.9953801E-02  0.4546660     -0.1500000       115.2231      -1.570646    
  7.3955603E-02  0.5628130     -4.6000001E-03   115.2231      -1.570646    
  0.1313107      0.5523610     -4.6000001E-03   115.2231      -1.570646    
  7.3955603E-02  0.5628130     -4.6000001E-03   62.32913      -1.570527    
  5.9953801E-02  0.4546660     -0.1500000       62.32913      -1.570527    
  1.3022000E-02  0.4582980     -0.1500000       62.32913      -1.570527    
  7.3955603E-02  0.5628130     -4.6000001E-03   62.32913      -1.570527    
  7.3955603E-02  0.5628130     -4.6000001E-03   44.87822      -1.570425    
  1.3022000E-02  0.4582980     -0.1500000       44.87822      -1.570425    
  1.5829800E-02  0.5673120     -4.6000001E-03   44.87822      -1.570425    
  7.3955603E-02  0.5628130     -4.6000001E-03   44.87822      -1.570425    
  1.5829800E-02  0.5673120     -4.6000001E-03   4.782648       1.567420    
  1.3022000E-02  0.4582980     -0.1500000       4.782648       1.567420    
 -3.4034599E-02  0.4570860     -0.1500000       4.782648       1.567420    
  1.5829800E-02  0.5673120     -4.6000001E-03   4.782648       1.567420    
  1.5829800E-02  0.5673120     -4.6000001E-03   25.93763       1.570181    
 -3.4034599E-02  0.4570860     -0.1500000       25.93763       1.570181    
 -4.2450599E-02  0.5658110     -4.6000001E-03   25.93763       1.570181    
  1.5829800E-02  0.5673120     -4.6000001E-03   25.93763       1.570181    
 -4.2450599E-02  0.5658110     -4.6000001E-03   71.86843       1.570581    
 -3.4034599E-02  0.4570860     -0.1500000       71.86843       1.570581    
 -8.0717102E-02  0.4510420     -0.1500000       71.86843       1.570581    
 -4.2450599E-02  0.5658110     -4.6000001E-03   71.86843       1.570581    
 -4.2450599E-02  0.5658110     -4.6000001E-03   96.52250       1.570638    
 -8.0717102E-02  0.4510420     -0.1500000       96.52250       1.570638    
 -0.1002677      0.5583260     -4.6000001E-03   96.52250       1.570638    
 -4.2450599E-02  0.5658110     -4.6000001E-03   96.52250       1.570638    
 -0.1002677      0.5583260     -4.6000001E-03   138.1406       1.570689    
 -8.0717102E-02  0.4510420     -0.1500000       138.1406       1.570689    
 -0.1265308      0.4402310     -0.1500000       138.1406       1.570689    
 -0.1002677      0.5583260     -4.6000001E-03   138.1406       1.570689    
 -0.1002677      0.5583260     -4.6000001E-03   165.9865       1.570708    
 -0.1265308      0.4402310     -0.1500000       165.9865       1.570708    
 -0.1570087      0.5449350     -4.6000001E-03   165.9865       1.570708    
 -0.1002677      0.5583260     -4.6000001E-03   165.9865       1.570708    
 -0.1570087      0.5449350     -4.6000001E-03   202.9751       1.570726    
 -0.1265308      0.4402310     -0.1500000       202.9751       1.570726    
 -0.1709900      0.4247653     -0.1500000       202.9751       1.570726    
 -0.1570087      0.5449350     -4.6000001E-03   202.9751       1.570726    
 -0.1570087      0.5449350     -4.6000001E-03   233.7390       1.570737    