 VARIABLES="X" "Y" "Z" "abs(p) (Pa)" "angle(p) (rad)"
ZONE N=    984,E =     246,F=FEPOINT,ET=QUADRILATERAL
 -0.4559500      1.2500000E-03 -0.1500000       141.3393       1.594091    
 -0.4553438     -2.2286100E-02 -0.1500000       141.3393       1.594091    
 -0.5642492     -2.7899800E-02 -4.6000001E-03   141.3393       1.594091    
 -0.4559500      1.2500000E-03 -0.1500000       141.3393       1.594091    
 -0.5642492     -2.7899800E-02 -4.6000001E-03   141.3778       1.594085    
 -0.4553438     -2.2286100E-02 -0.1500000       141.3778       1.594085    
 -0.4505038     -6.9108702E-02 -0.1500000       141.3778       1.594085    
 -0.5642492     -2.7899800E-02 -4.6000001E-03   141.3778       1.594085    
 -0.5642492     -2.7899800E-02 -4.6000001E-03   133.4046       1.595505    
 -0.4505038     -6.9108702E-02 -0.1500000       133.4046       1.595505    
 -0.5582547     -8.5890502E-02 -4.6000001E-03   133.4046       1.595505    
 -0.5642492     -2.7899800E-02 -4.6000001E-03   133.4046       1.595505    
 -0.5582547     -8.5890502E-02 -4.6000001E-03   141.4500       1.594073    
 -0.4505038     -6.9108702E-02 -0.1500000       141.4500       1.594073    
 -0.4408751     -0.1151856     -0.1500000       141.4500       1.594073    
 -0.5582547     -8.5890502E-02 -4.6000001E-03   141.4500       1.594073    
 -0.5582547     -8.5890502E-02 -4.6000001E-03   133.4411       1.595498    
 -0.4408751     -0.1151856     -0.1500000       133.4411       1.595498    
 -0.5463294     -0.1429575     -4.6000001E-03   133.4411       1.595498    
 -0.5582547     -8.5890502E-02 -4.6000001E-03   133.4411       1.595498    
 -0.5463294     -0.1429575     -4.6000001E-03   141.4632       1.594071    
 -0.4408751     -0.1151856     -0.1500000       141.4632       1.594071    
 -0.4265597     -0.1600282     -0.1500000       141.4632       1.594071    
 -0.5463294     -0.1429575     -4.6000001E-03   141.4632       1.594071    
 -0.5463294     -0.1429575     -4.6000001E-03   133.4522       1.595496    
 -0.4265597     -0.1600282     -0.1500000       133.4522       1.595496    
 -0.5285996     -0.1984958     -4.6000001E-03   133.4522       1.595496    
 -0.5463294     -0.1429575     -4.6000001E-03   133.4522       1.595496    
 -0.5285996     -0.1984958     -4.6000001E-03   141.4702       1.594070    
 -0.4265597     -0.1600282     -0.1500000       141.4702       1.594070    
 -0.4077095     -0.2031613     -0.1500000       141.4702       1.594070    
 -0.5285996     -0.1984958     -4.6000001E-03   141.4702       1.594070    
 -0.5285996     -0.1984958     -4.6000001E-03   133.4586       1.595495    
 -0.4077095     -0.2031613     -0.1500000       133.4586       1.595495    
 -0.5052533     -0.2519168     -4.6000001E-03   133.4586       1.595495    
 -0.5285996     -0.1984958     -4.6000001E-03   133.4586       1.595495    
 -0.5052533     -0.2519168     -4.6000001E-03   141.4719       1.594069    
 -0.4077095     -0.2031613     -0.1500000       141.4719       1.594069    
 -0.3845242     -0.2441275     -0.1500000       141.4719       1.594069    
 -0.5052533     -0.2519168     -4.6000001E-03   141.4719       1.594069    
 -0.5052533     -0.2519168     -4.6000001E-03   133.4608       1.595494    
 -0.3845242     -0.2441275     -0.1500000       133.4608       1.595494    
 -0.4765379     -0.3026542     -4.6000001E-03   133.4608       1.595494    
 -0.5052533     -0.2519168     -4.6000001E-03   133.4608       1.595494    
 -0.4765379     -0.3026542     -4.6000001E-03   141.4736       1.594069    
 -0.3845242     -0.2441275     -0.1500000       141.4736       1.594069    
 -0.3572496     -0.2824926     -0.1500000       141.4736       1.594069    
 -0.4765379     -0.3026542     -4.6000001E-03   141.4736       1.594069    
 -0.4765379     -0.3026542     -4.6000001E-03   133.4633       1.595494    
 -0.3572496     -0.2824926     -0.1500000       133.4633       1.595494    
 -0.4427578     -0.3501701     -4.6000001E-03   133.4633       1.595494    
 -0.4765379     -0.3026542     -4.6000001E-03   133.4633       1.595494    
 -0.4427578     -0.3501701     -4.6000001E-03   141.4750       1.594069    
 -0.3572496     -0.2824926     -0.1500000       141.4750       1.594069    
 -0.3261748     -0.3178501     -0.1500000       141.4750       1.594069    
 -0.4427578     -0.3501701     -4.6000001E-03   141.4750       1.594069    
 -0.4427578     -0.3501701     -4.6000001E-03   133.4654       1.595493    
 -0.3261748     -0.3178501     -0.1500000       133.4654       1.595493    
 -0.4042712     -0.3939609     -4.6000001E-03   133.4654       1.595493    
 -0.4427578     -0.3501701     -4.6000001E-03   133.4654       1.595493    
 -0.4042712     -0.3939609     -4.6000001E-03   141.4751       1.594069    
 -0.3261748     -0.3178501     -0.1500000       141.4751       1.594069    
 -0.2916292     -0.3498249     -0.1500000       141.4751       1.594069    
 -0.4042712     -0.3939609     -4.6000001E-03   141.4751       1.594069    
 -0.4042712     -0.3939609     -4.6000001E-03   133.4645       1.595494    
 -0.2916292     -0.3498249     -0.1500000       133.4645       1.595494    
 -0.3614859     -0.4335623     -4.6000001E-03   133.4645       1.595494    
 -0.4042712     -0.3939609     -4.6000001E-03   133.4645       1.595494    
 -0.3614859     -0.4335623     -4.6000001E-03   141.4760       1.594069    
 -0.2916292     -0.3498249     -0.1500000       141.4760       1.594069    
 -0.2539790     -0.3780783     -0.1500000       141.4760       1.594069    
 -0.3614859     -0.4335623     -4.6000001E-03   141.4760       1.594069    
 -0.3614859     -0.4335623     -4.6000001E-03   133.4653       1.595493    
 -0.2539790     -0.3780783     -0.1500000       133.4653       1.595493    
 -0.3148555     -0.4685546     -4.6000001E-03   133.4653       1.595493    
 -0.3614859     -0.4335623     -4.6000001E-03   133.4653       1.595493    
 -0.3148555     -0.4685546     -4.6000001E-03   141.4764       1.594069    
 -0.2539790     -0.3780783     -0.1500000       141.4764       1.594069    
 -0.2136233     -0.4023107     -0.1500000       141.4764       1.594069    
 -0.3148555     -0.4685546     -4.6000001E-03   141.4764       1.594069    
 -0.3148555     -0.4685546     -4.6000001E-03   133.4659       1.595493    
 -0.2136233     -0.4023107     -0.1500000       133.4659       1.595493    
 -0.2648743     -0.4985668     -4.6000001E-03   133.4659       1.595493    
 -0.3148555     -0.4685546     -4.6000001E-03   133.4659       1.595493    
 -0.2648743     -0.4985668     -4.6000001E-03   141.4769       1.594069    
 -0.2136233     -0.4023107     -0.1500000       141.4769       1.594069    
 -0.1709900     -0.4222653     -0.1500000       141.4769       1.594069    
 -0.2648743     -0.4985668     -4.6000001E-03   141.4769       1.594069    
 -0.2648743     -0.4985668     -4.6000001E-03   133.4664       1.595493    
 -0.1709900     -0.4222653     -0.1500000       133.4664       1.595493    
 -0.2120721     -0.5232809     -4.6000001E-03   133.4664       1.595493    
 -0.2648743     -0.4985668     -4.6000001E-03   133.4664       1.595493    
 -0.2120721     -0.5232809     -4.6000001E-03   141.4772       1.594069    
 -0.1709900     -0.4222653     -0.1500000       141.4772       1.594069    
 -0.1265308     -0.4377305     -0.1500000       141.4772       1.594069    
 -0.2120721     -0.5232809     -4.6000001E-03   141.4772       1.594069    
 -0.2120721     -0.5232809     -4.6000001E-03   133.4658       1.595493    
 -0.1265308     -0.4377305     -0.1500000       133.4658       1.595493    
 -0.1570087     -0.5424348     -4.6000001E-03   133.4658       1.595493    
 -0.2120721     -0.5232809     -4.6000001E-03   133.4658       1.595493    
 -0.1570087     -0.5424348     -4.6000001E-03   141.4767       1.594069    
 -0.1265308     -0.4377305     -0.1500000       141.4767       1.594069    
 -8.0717102E-02 -0.4485424     -0.1500000       141.4767       1.594069    
 -0.1570087     -0.5424348     -4.6000001E-03   141.4767       1.594069    
 -0.1570087     -0.5424348     -4.6000001E-03   133.4661       1.595493    
 -8.0717102E-02 -0.4485424     -0.1500000       133.4661       1.595493    
 -0.1002677     -0.5558256     -4.6000001E-03   133.4661       1.595493    
 -0.1570087     -0.5424348     -4.6000001E-03   133.4661       1.595493    
 -0.1002677     -0.5558256     -4.6000001E-03   141.4771       1.594069    
 -8.0717102E-02 -0.4485424     -0.1500000       141.4771       1.594069    
 -3.4034599E-02 -0.4545864     -0.1500000       141.4771       1.594069    
 -0.1002677     -0.5558256     -4.6000001E-03   141.4771       1.594069    
 -0.1002677     -0.5558256     -4.6000001E-03   133.4664       1.595493    
 -3.4034599E-02 -0.4545864     -0.1500000       133.4664       1.595493    
 -4.2450599E-02 -0.5633112     -4.6000001E-03   133.4664       1.595493    
 -0.1002677     -0.5558256     -4.6000001E-03   133.4664       1.595493    
 -4.2450599E-02 -0.5633112     -4.6000001E-03   141.4772       1.594069    
 -3.4034599E-02 -0.4545864     -0.1500000       141.4772       1.594069    
  1.3022000E-02 -0.4557984     -0.1500000       141.4772       1.594069    
 -4.2450599E-02 -0.5633112     -4.6000001E-03   141.4772       1.594069    
 -4.2450599E-02 -0.5633112     -4.6000001E-03   133.4658       1.595493    
  1.3022000E-02 -0.4557984     -0.1500000       133.4658       1.595493    
  1.5829800E-02 -0.5648122     -4.6000001E-03   133.4658       1.595493    
 -4.2450599E-02 -0.5633112     -4.6000001E-03   133.4658       1.595493    
  1.5829800E-02 -0.5648122     -4.6000001E-03   141.4774       1.594069    
  1.3022000E-02 -0.4557984     -0.1500000       141.4774       1.594069    
  5.9953801E-02 -0.4521656     -0.1500000       141.4774       1.594069    
  1.5829800E-02 -0.5648122     -4.6000001E-03   141.4774       1.594069    
  1.5829800E-02 -0.5648122     -4.6000001E-03   133.4664       1.595493    
  5.9953801E-02 -0.4521656     -0.1500000       133.4664       1.595493    
  7.3955603E-02 -0.5603129     -4.6000001E-03   133.4664       1.595493    
  1.5829800E-02 -0.5648122     -4.6000001E-03   133.4664       1.595493    
  7.3955603E-02 -0.5603129     -4.6000001E-03   141.4772       1.594069    
  5.9953801E-02 -0.4521656     -0.1500000       141.4772       1.594069    
  0.1062633     -0.4437265     -0.1500000       141.4772       1.594069    
  7.3955603E-02 -0.5603129     -4.6000001E-03   141.4772       1.594069    
  7.3955603E-02 -0.5603129     -4.6000001E-03   133.4665       1.595493    
  0.1062633     -0.4437265     -0.1500000       133.4665       1.595493    
  0.1313107     -0.5498609     -4.6000001E-03   133.4665       1.595493    
  7.3955603E-02 -0.5603129     -4.6000001E-03   133.4665       1.595493    
  0.1313107     -0.5498609     -4.6000001E-03   141.4773       1.594069    
  0.1062633     -0.4437265     -0.1500000       141.4773       1.594069    
  0.1514596     -0.4305705     -0.1500000       141.4773       1.594069    
  0.1313107     -0.5498609     -4.6000001E-03   141.4773       1.594069    
  0.1313107     -0.5498609     -4.6000001E-03   133.4665       1.595493    
  0.1514596     -0.4305705     -0.1500000       133.4665       1.595493    
  0.1872871     -0.5335670     -4.6000001E-03   133.4665       1.595493    
  0.1313107     -0.5498609     -4.6000001E-03   133.4665       1.595493    
  0.1872871     -0.5335670     -4.6000001E-03   141.4774       1.594069    
  0.1514596     -0.4305705     -0.1500000       141.4774       1.594069    
  0.1950637     -0.4128371     -0.1500000       141.4774       1.594069    
  0.1872871     -0.5335670     -4.6000001E-03   141.4774       1.594069    
  0.1872871     -0.5335670     -4.6000001E-03   133.4667       1.595493    
  0.1950637     -0.4128371     -0.1500000       133.4667       1.595493    
  0.2412916     -0.5116039     -4.6000001E-03   133.4667       1.595493    
  0.1872871     -0.5335670     -4.6000001E-03   133.4667       1.595493    
  0.2412916     -0.5116039     -4.6000001E-03   141.4776       1.594069    
  0.1950637     -0.4128371     -0.1500000       141.4776       1.594069    
  0.2366133     -0.3907142     -0.1500000       141.4776       1.594069    
  0.2412916     -0.5116039     -4.6000001E-03   141.4776       1.594069    
  0.2412916     -0.5116039     -4.6000001E-03   133.4667       1.595493    
  0.2366133     -0.3907142     -0.1500000       133.4667       1.595493    
  0.2927515     -0.4842044     -4.6000001E-03   133.4667       1.595493    
  0.2412916     -0.5116039     -4.6000001E-03   133.4667       1.595493    
  0.2927515     -0.4842044     -4.6000001E-03   141.4776       1.594069    
  0.2366133     -0.3907142     -0.1500000       141.4776       1.594069    
  0.2756680     -0.3644365     -0.1500000       141.4776       1.594069    
  0.2927515     -0.4842044     -4.6000001E-03   141.4776       1.594069    
  0.2927515     -0.4842044     -4.6000001E-03   133.4667       1.595493    
  0.2756680     -0.3644365     -0.1500000       133.4667       1.595493    
  0.3411214     -0.4516589     -4.6000001E-03   133.4667       1.595493    
  0.2927515     -0.4842044     -4.6000001E-03   133.4667       1.595493    
  0.3411214     -0.4516589     -4.6000001E-03   141.4775       1.594069    
  0.2756680     -0.3644365     -0.1500000       141.4775       1.594069    
  0.3118138     -0.3342824     -0.1500000       141.4775       1.594069    
  0.3411214     -0.4516589     -4.6000001E-03   141.4775       1.594069    
  0.3411214     -0.4516589     -4.6000001E-03   133.4667       1.595493    
  0.3118138     -0.3342824     -0.1500000       133.4667       1.595493    
  0.3858885     -0.4143126     -4.6000001E-03   133.4667       1.595493    
  0.3411214     -0.4516589     -4.6000001E-03   133.4667       1.595493    
  0.3858885     -0.4143126     -4.6000001E-03   141.4776       1.594069    
  0.3118138     -0.3342824     -0.1500000       141.4776       1.594069    
  0.3446676     -0.3005715     -0.1500000       141.4776       1.594069    
  0.3858885     -0.4143126     -4.6000001E-03   141.4776       1.594069    
  0.3858885     -0.4143126     -4.6000001E-03   133.4665       1.595493    
  0.3446676     -0.3005715     -0.1500000       133.4665       1.595493    
  0.4265785     -0.3725611     -4.6000001E-03   133.4665       1.595493    
  0.3858885     -0.4143126     -4.6000001E-03   133.4665       1.595493    
  0.4265785     -0.3725611     -4.6000001E-03   141.4776       1.594069    
  0.3446676     -0.3005715     -0.1500000       141.4776       1.594069    
  0.3738810     -0.2636613     -0.1500000       141.4776       1.594069    
  0.4265785     -0.3725611     -4.6000001E-03   141.4776       1.594069    
  0.4265785     -0.3725611     -4.6000001E-03   133.4666       1.595493    
  0.3738810     -0.2636613     -0.1500000       133.4666       1.595493    
  0.4627600     -0.3268472     -4.6000001E-03   133.4666       1.595493    
  0.4265785     -0.3725611     -4.6000001E-03   133.4666       1.595493    
  0.4627600     -0.3268472     -4.6000001E-03   141.4774       1.594069    
  0.3738810     -0.2636613     -0.1500000       141.4774       1.594069    
  0.3991444     -0.2239430     -0.1500000       141.4774       1.594069    
  0.4627600     -0.3268472     -4.6000001E-03   141.4774       1.594069    
  0.4627600     -0.3268472     -4.6000001E-03   133.4667       1.595493    
  0.3991444     -0.2239430     -0.1500000       133.4667       1.595493    
  0.4940490     -0.2776553     -4.6000001E-03   133.4667       1.595493    
  0.4627600     -0.3268472     -4.6000001E-03   133.4667       1.595493    
  0.4940490     -0.2776553     -4.6000001E-03   141.4774       1.594069    
  0.3991444     -0.2239430     -0.1500000       141.4774       1.594069    
  0.4201901     -0.1818375     -0.1500000       141.4774       1.594069    
  0.4940490     -0.2776553     -4.6000001E-03   141.4774       1.594069    
  0.4940490     -0.2776553     -4.6000001E-03   133.4667       1.595493    
  0.4201901     -0.1818375     -0.1500000       133.4667       1.595493    
  0.5201140     -0.2255070     -4.6000001E-03   133.4667       1.595493    
  0.4940490     -0.2776553     -4.6000001E-03   133.4667       1.595493    
  0.5201140     -0.2255070     -4.6000001E-03   141.4775       1.594069    
  0.4201901     -0.1818375     -0.1500000       141.4775       1.594069    
  0.4367950     -0.1377913     -0.1500000       141.4775       1.594069    
  0.5201140     -0.2255070     -4.6000001E-03   141.4775       1.594069    
  0.5201140     -0.2255070     -4.6000001E-03   133.4667       1.595493    
  0.4367950     -0.1377913     -0.1500000       133.4667       1.595493    
  0.5406800     -0.1709550     -4.6000001E-03   133.4667       1.595493    
  0.5201140     -0.2255070     -4.6000001E-03   133.4667       1.595493    
  0.5406800     -0.1709550     -4.6000001E-03   141.4774       1.594069    
  0.4367950     -0.1377913     -0.1500000       141.4774       1.594069    
  0.4487830     -9.2271201E-02 -0.1500000       141.4774       1.594069    
  0.5406800     -0.1709550     -4.6000001E-03   141.4774       1.594069    
  0.5406800     -0.1709550     -4.6000001E-03   133.4667       1.595493    
  0.4487830     -9.2271201E-02 -0.1500000       133.4667       1.595493    
  0.5555270     -0.1145776     -4.6000001E-03   133.4667       1.595493    
  0.5406800     -0.1709550     -4.6000001E-03   133.4667       1.595493    
  0.5555270     -0.1145776     -4.6000001E-03   141.4775       1.594069    
  0.4487830     -9.2271201E-02 -0.1500000       141.4775       1.594069    
  0.4560270     -4.5759700E-02 -0.1500000       141.4775       1.594069    
  0.5555270     -0.1145776     -4.6000001E-03   141.4775       1.594069    
  0.5555270     -0.1145776     -4.6000001E-03   133.4667       1.595493    
  0.4560270     -4.5759700E-02 -0.1500000       133.4667       1.595493    
  0.5644990     -5.6972399E-02 -4.6000001E-03   133.4667       1.595493    
  0.5555270     -0.1145776     -4.6000001E-03   133.4667       1.595493    
  0.5644990     -5.6972399E-02 -4.6000001E-03   141.4775       1.594069    
  0.4560270     -4.5759700E-02 -0.1500000       141.4775       1.594069    
  0.4584500      1.2500000E-03 -0.1500000       141.4775       1.594069    
  0.5644990     -5.6972399E-02 -4.6000001E-03   141.4775       1.594069    
  0.5644990     -5.6972399E-02 -4.6000001E-03   133.4668       1.595493    
  0.4584500      1.2500000E-03 -0.1500000       133.4668       1.595493    
  0.5675000      1.2500000E-03 -4.6000001E-03   133.4668       1.595493    
  0.5644990     -5.6972399E-02 -4.6000001E-03   133.4668       1.595493    
  0.5675000      1.2500000E-03 -4.6000001E-03   141.4775       1.594069    
  0.4584500      1.2500000E-03 -0.1500000       141.4775       1.594069    
  0.4560270      4.8259798E-02 -0.1500000       141.4775       1.594069    
  0.5675000      1.2500000E-03 -4.6000001E-03   141.4775       1.594069    
  0.5675000      1.2500000E-03 -4.6000001E-03   133.4667       1.595493    
  0.4560270      4.8259798E-02 -0.1500000       133.4667       1.595493    
  0.5644990      5.9472401E-02 -4.6000001E-03   133.4667       1.595493    
  0.5675000      1.2500000E-03 -4.6000001E-03   133.4667       1.595493    
  0.5644990      5.9472401E-02 -4.6000001E-03   141.4775       1.594069    
  0.4560270      4.8259798E-02 -0.1500000       141.4775       1.594069    
  0.4487830      9.4771199E-02 -0.1500000       141.4775       1.594069    
  0.5644990      5.9472401E-02 -4.6000001E-03   141.4775       1.594069    
  0.5644990      5.9472401E-02 -4.6000001E-03   133.4667       1.595493    
  0.4487830      9.4771199E-02 -0.1500000       133.4667       1.595493    
  0.5555270      0.1170776     -4.6000001E-03   133.4667       1.595493    
  0.5644990      5.9472401E-02 -4.6000001E-03   133.4667       1.595493    
  0.5555270      0.1170776     -4.6000001E-03   141.4776       1.594069    
  0.4487830      9.4771199E-02 -0.1500000       141.4776       1.594069    
  0.4367950      0.1402913     -0.1500000       141.4776       1.594069    
  0.5555270      0.1170776     -4.6000001E-03   141.4776       1.594069    
  0.5555270      0.1170776     -4.6000001E-03   133.4668       1.595493    
  0.4367950      0.1402913     -0.1500000       133.4668       1.595493    
  0.5406800      0.1734551     -4.6000001E-03   133.4668       1.595493    
  0.5555270      0.1170776     -4.6000001E-03   133.4668       1.595493    
  0.5406800      0.1734551     -4.6000001E-03   141.4776       1.594069    
  0.4367950      0.1402913     -0.1500000       141.4776       1.594069    
  0.4201901      0.1843376     -0.1500000       141.4776       1.594069    
  0.5406800      0.1734551     -4.6000001E-03   141.4776       1.594069    
  0.5406800      0.1734551     -4.6000001E-03   133.4668       1.595493    
  0.4201901      0.1843376     -0.1500000       133.4668       1.595493    
  0.5201140      0.2280070     -4.6000001E-03   133.4668       1.595493    
  0.5406800      0.1734551     -4.6000001E-03   133.4668       1.595493    
  0.5201140      0.2280070     -4.6000001E-03   141.4776       1.594069    
  0.4201901      0.1843376     -0.1500000       141.4776       1.594069    
  0.3991444      0.2264430     -0.1500000       141.4776       1.594069    
  0.5201140      0.2280070     -4.6000001E-03   141.4776       1.594069    
  0.5201140      0.2280070     -4.6000001E-03   133.4668       1.595493    
  0.3991444      0.2264430     -0.1500000       133.4668       1.595493    
  0.4940490      0.2801554     -4.6000001E-03   133.4668       1.595493    
  0.5201140      0.2280070     -4.6000001E-03   133.4668       1.595493    
  0.4940490      0.2801554     -4.6000001E-03   141.4776       1.594069    
  0.3991444      0.2264430     -0.1500000       141.4776       1.594069    
  0.3738810      0.2661614     -0.1500000       141.4776       1.594069    
  0.4940490      0.2801554     -4.6000001E-03   141.4776       1.594069    
  0.4940490      0.2801554     -4.6000001E-03   133.4668       1.595493    
  0.3738810      0.2661614     -0.1500000       133.4668       1.595493    
  0.4627600      0.3293472     -4.6000001E-03   133.4668       1.595493    
  0.4940490      0.2801554     -4.6000001E-03   133.4668       1.595493    
  0.4627600      0.3293472     -4.6000001E-03   141.4775       1.594069    
  0.3738810      0.2661614     -0.1500000       141.4775       1.594069    
  0.3446676      0.3030716     -0.1500000       141.4775       1.594069    
  0.4627600      0.3293472     -4.6000001E-03   141.4775       1.594069    
  0.4627600      0.3293472     -4.6000001E-03   133.4669       1.595493    
  0.3446676      0.3030716     -0.1500000       133.4669       1.595493    
  0.4265785      0.3750612     -4.6000001E-03   133.4669       1.595493    
  0.4627600      0.3293472     -4.6000001E-03   133.4669       1.595493    
  0.4265785      0.3750612     -4.6000001E-03   141.4775       1.594069    
  0.3446676      0.3030716     -0.1500000       141.4775       1.594069    
  0.3118138      0.3367824     -0.1500000       141.4775       1.594069    
  0.4265785      0.3750612     -4.6000001E-03   141.4775       1.594069    
  0.4265785      0.3750612     -4.6000001E-03   133.4669       1.595493    
  0.3118138      0.3367824     -0.1500000       133.4669       1.595493    
  0.3858885      0.4168126     -4.6000001E-03   133.4669       1.595493    
  0.4265785      0.3750612     -4.6000001E-03   133.4669       1.595493    
  0.3858885      0.4168126     -4.6000001E-03   141.4776       1.594069    
  0.3118138      0.3367824     -0.1500000       141.4776       1.594069    
  0.2756680      0.3669365     -0.1500000       141.4776       1.594069    
  0.3858885      0.4168126     -4.6000001E-03   141.4776       1.594069    
  0.3858885      0.4168126     -4.6000001E-03   133.4667       1.595493    
  0.2756680      0.3669365     -0.1500000       133.4667       1.595493    
  0.3411214      0.4541590     -4.6000001E-03   133.4667       1.595493    
  0.3858885      0.4168126     -4.6000001E-03   133.4667       1.595493    
  0.3411214      0.4541590     -4.6000001E-03   141.4776       1.594069    
  0.2756680      0.3669365     -0.1500000       141.4776       1.594069    
  0.2366133      0.3932143     -0.1500000       141.4776       1.594069    
  0.3411214      0.4541590     -4.6000001E-03   141.4776       1.594069    
  0.3411214      0.4541590     -4.6000001E-03   133.4668       1.595493    
  0.2366133      0.3932143     -0.1500000       133.4668       1.595493    
  0.2927515      0.4867040     -4.6000001E-03   133.4668       1.595493    
  0.3411214      0.4541590     -4.6000001E-03   133.4668       1.595493    
  0.2927515      0.4867040     -4.6000001E-03   141.4777       1.594069    
  0.2366133      0.3932143     -0.1500000       141.4777       1.594069    
  0.1950637      0.4153371     -0.1500000       141.4777       1.594069    
  0.2927515      0.4867040     -4.6000001E-03   141.4777       1.594069    
  0.2927515      0.4867040     -4.6000001E-03   133.4669       1.595493    
  0.1950637      0.4153371     -0.1500000       133.4669       1.595493    
  0.2412916      0.5141040     -4.6000001E-03   133.4669       1.595493    
  0.2927515      0.4867040     -4.6000001E-03   133.4669       1.595493    
  0.2412916      0.5141040     -4.6000001E-03   141.4777       1.594069    
  0.1950637      0.4153371     -0.1500000       141.4777       1.594069    
  0.1514596      0.4330705     -0.1500000       141.4777       1.594069    
  0.2412916      0.5141040     -4.6000001E-03   141.4777       1.594069    
  0.2412916      0.5141040     -4.6000001E-03   133.4669       1.595493    
  0.1514596      0.4330705     -0.1500000       133.4669       1.595493    
  0.1872871      0.5360670     -4.6000001E-03   133.4669       1.595493    
  0.2412916      0.5141040     -4.6000001E-03   133.4669       1.595493    
  0.1872871      0.5360670     -4.6000001E-03   141.4777       1.594069    
  0.1514596      0.4330705     -0.1500000       141.4777       1.594069    
  0.1062633      0.4462270     -0.1500000       141.4777       1.594069    
  0.1872871      0.5360670     -4.6000001E-03   141.4777       1.594069    
  0.1872871      0.5360670     -4.6000001E-03   133.4669       1.595493    
  0.1062633      0.4462270     -0.1500000       133.4669       1.595493    
  0.1313107      0.5523610     -4.6000001E-03   133.4669       1.595493    
  0.1872871      0.5360670     -4.6000001E-03   133.4669       1.595493    
  0.1313107      0.5523610     -4.6000001E-03   141.4777       1.594069    
  0.1062633      0.4462270     -0.1500000       141.4777       1.594069    
  5.9953801E-02  0.4546660     -0.1500000       141.4777       1.594069    
  0.1313107      0.5523610     -4.6000001E-03   141.4777       1.594069    
  0.1313107      0.5523610     -4.6000001E-03   133.4669       1.595493    
  5.9953801E-02  0.4546660     -0.1500000       133.4669       1.595493    
  7.3955603E-02  0.5628130     -4.6000001E-03   133.4669       1.595493    
  0.1313107      0.5523610     -4.6000001E-03   133.4669       1.595493    
  7.3955603E-02  0.5628130     -4.6000001E-03   141.4780       1.594069    
  5.9953801E-02  0.4546660     -0.1500000       141.4780       1.594069    
  1.3022000E-02  0.4582980     -0.1500000       141.4780       1.594069    
  7.3955603E-02  0.5628130     -4.6000001E-03   141.4780       1.594069    
  7.3955603E-02  0.5628130     -4.6000001E-03   133.4672       1.595493    
  1.3022000E-02  0.4582980     -0.1500000       133.4672       1.595493    
  1.5829800E-02  0.5673120     -4.6000001E-03   133.4672       1.595493    
  7.3955603E-02  0.5628130     -4.6000001E-03   133.4672       1.595493    
  1.5829800E-02  0.5673120     -4.6000001E-03   141.4782       1.594068    
  1.3022000E-02  0.4582980     -0.1500000       141.4782       1.594068    
 -3.4034599E-02  0.4570860     -0.1500000       141.4782       1.594068    
  1.5829800E-02  0.5673120     -4.6000001E-03   141.4782       1.594068    
  1.5829800E-02  0.5673120     -4.6000001E-03   133.4676       1.595493    
 -3.4034599E-02  0.4570860     -0.1500000       133.4676       1.595493    
 -4.2450599E-02  0.5658110     -4.6000001E-03   133.4676       1.595493    
  1.5829800E-02  0.5673120     -4.6000001E-03   133.4676       1.595493    
 -4.2450599E-02  0.5658110     -4.6000001E-03   141.4783       1.594068    
 -3.4034599E-02  0.4570860     -0.1500000       141.4783       1.594068    
 -8.0717102E-02  0.4510420     -0.1500000       141.4783       1.594068    
 -4.2450599E-02  0.5658110     -4.6000001E-03   141.4783       1.594068    
 -4.2450599E-02  0.5658110     -4.6000001E-03   133.4677       1.595493    
 -8.0717102E-02  0.4510420     -0.1500000       133.4677       1.595493    
 -0.1002677      0.5583260     -4.6000001E-03   133.4677       1.595493    
 -4.2450599E-02  0.5658110     -4.6000001E-03   133.4677       1.595493    
 -0.1002677      0.5583260     -4.6000001E-03   141.4782       1.594068    
 -8.0717102E-02  0.4510420     -0.1500000       141.4782       1.594068    
 -0.1265308      0.4402310     -0.1500000       141.4782       1.594068    
 -0.1002677      0.5583260     -4.6000001E-03   141.4782       1.594068    
 -0.1002677      0.5583260     -4.6000001E-03   133.4675       1.595493    
 -0.1265308      0.4402310     -0.1500000       133.4675       1.595493    
 -0.1570087      0.5449350     -4.6000001E-03   133.4675       1.595493    
 -0.1002677      0.5583260     -4.6000001E-03   133.4675       1.595493    
 -0.1570087      0.5449350     -4.6000001E-03   141.4777       1.594069    
 -0.1265308      0.4402310     -0.1500000       141.4777       1.594069    
 -0.1709900      0.4247653     -0.1500000       141.4777       1.594069    
 -0.1570087      0.5449350     -4.6000001E-03   141.4777       1.594069    
 -0.1570087      0.5449350     -4.6000001E-03   133.4668       1.595493    