VARIABLES="w (rad/s)"
"A   1   1" "B   1   1"
"A   1   2" "B   1   2"
"A   1   3" "B   1   3"
"A   1   4" "B   1   4"
"A   1   5" "B   1   5"
"A   1   6" "B   1   6"
Zone t="Motion of body    1 in DoF   1",I=    10,F=POINT
  0.1000000E+00  0.3268706E+02  0.1802971E-09  0.2381872E-01 -0.2562631E-11  0.1142025E-02 -0.1283460E-08 -0.2014246E+00  0.5543854E-10  0.2438789E+03  0.1445814E-08 -0.4109160E-01  0.2409295E-11
  0.2000000E+00  0.3270126E+02  0.8529559E-07  0.2387507E-01 -0.3368026E-09  0.9387732E-03 -0.5277201E-09 -0.2023215E+00  0.3727170E-08  0.2439838E+03  0.6314501E-06 -0.4111017E-01 -0.1056806E-09
  0.3000000E+00  0.3289339E+02  0.1499731E-05  0.2354421E-01 -0.4199785E-10  0.4745523E-03  0.5293106E-07 -0.1992731E+00  0.9004424E-09  0.2455134E+03  0.1120833E-04 -0.4134679E-01 -0.1975899E-08
  0.4000000E+00  0.3275795E+02  0.1131434E-04  0.2399058E-01  0.1534505E-08  0.1051724E-02  0.2050926E-06 -0.2033281E+00 -0.4892883E-08  0.2443924E+03  0.8447108E-04 -0.4118337E-01 -0.1443592E-07
  0.5000000E+00  0.3281059E+02  0.5346744E-04  0.2383725E-01  0.1052933E-08  0.1421213E-02  0.5605602E-06 -0.2022838E+00  0.3562434E-08  0.2447645E+03  0.3991250E-03 -0.4124932E-01 -0.6811365E-07
  0.6000000E+00  0.3302883E+02  0.1908613E-03  0.2357404E-01  0.5472016E-08  0.5125999E-03  0.1415500E-05 -0.1984039E+00 -0.1077774E-07  0.2464726E+03  0.1425056E-02 -0.4152152E-01 -0.2421538E-06
  0.7000000E+00  0.3310079E+02  0.5597435E-03  0.2316812E-01  0.1519400E-07  0.1370481E-02  0.3084806E-05 -0.1966794E+00 -0.3299056E-07  0.2471319E+03  0.4178911E-02 -0.4160548E-01 -0.7088628E-06
  0.8000000E+00  0.3307169E+02  0.1417813E-02  0.2349651E-01  0.4083195E-07  0.1158863E-02  0.5909125E-05 -0.1977410E+00 -0.1500121E-07  0.2466469E+03  0.1058157E-01 -0.4156847E-01 -0.1793044E-05
  0.9000000E+00  0.3336063E+02  0.3220299E-02  0.2311511E-01  0.1718232E-06  0.1345078E-02  0.1035913E-04 -0.1871980E+00 -0.5535167E-06  0.2490245E+03  0.2403647E-01 -0.4193408E-01 -0.4069881E-05
  0.9999999E+00  0.3326783E+02  0.6685370E-02  0.2360428E-01  0.2789812E-06  0.1286268E-02  0.1744198E-04 -0.1990707E+00 -0.8065435E-06  0.2480514E+03  0.4988435E-01 -0.4182470E-01 -0.8445289E-05
Zone t="Motion of body    1 in DoF   2",I=    10,F=POINT
  0.1000000E+00 -0.2211360E-01 -0.1020295E-12  0.3269207E+02  0.2372793E-09  0.5108118E-03  0.2178405E-08 -0.2439160E+03 -0.1905320E-08 -0.1901991E+00 -0.6486822E-10  0.4083550E-01 -0.1292228E-11
  0.2000000E+00 -0.2223725E-01 -0.3205631E-09  0.3270624E+02  0.8487166E-07  0.5020574E-03 -0.1475936E-08 -0.2440209E+03 -0.6286135E-06 -0.1915886E+00 -0.3393383E-08  0.4085357E-01  0.1110868E-09
  0.3000000E+00 -0.2190267E-01 -0.3919389E-09  0.3289840E+02  0.1499232E-05  0.4572670E-03  0.2234684E-07 -0.2455510E+03 -0.1120445E-04 -0.1885644E+00  0.3191399E-08  0.4109388E-01  0.1864532E-08
  0.4000000E+00 -0.2239033E-01 -0.4632525E-09  0.3276291E+02  0.1131750E-04  0.4834309E-03 -0.1282689E-07 -0.2444294E+03 -0.8449990E-04 -0.1929141E+00  0.4285667E-08  0.4092481E-01  0.1405123E-07
  0.5000000E+00 -0.2211046E-01  0.3960295E-08  0.3281559E+02  0.5346656E-04  0.5242825E-03 -0.1168710E-06 -0.2448018E+03 -0.3991267E-03 -0.1908766E+00  0.4853615E-07  0.4098957E-01  0.6689466E-07
  0.6000000E+00 -0.2193435E-01  0.2950287E-07  0.3303390E+02  0.1908832E-03  0.4359086E-03 -0.2874187E-06 -0.2465106E+03 -0.1425205E-02 -0.1876840E+00  0.2304020E-06  0.4126304E-01  0.2384977E-06
  0.7000000E+00 -0.2165527E-01  0.7816433E-07  0.3310559E+02  0.5598391E-03  0.4494190E-03 -0.4529584E-06 -0.2471677E+03 -0.4179663E-02 -0.1869706E+00  0.7100584E-06  0.4135258E-01  0.6993158E-06
  0.8000000E+00 -0.2186269E-01  0.5870618E-07  0.3307671E+02  0.1417950E-02  0.4316866E-03 -0.7623639E-06 -0.2466841E+03 -0.1058259E-01 -0.1870591E+00  0.6644041E-06  0.4131667E-01  0.1769881E-05
  0.9000000E+00 -0.2142471E-01  0.1615799E-06  0.3336567E+02  0.3220801E-02  0.4983611E-03 -0.1944118E-05 -0.2490624E+03 -0.2404030E-01 -0.1758195E+00  0.2030642E-05  0.4167618E-01  0.4021708E-05
  0.9999999E+00 -0.2180833E-01  0.2330438E-06  0.3327286E+02  0.6686353E-02  0.4771352E-03 -0.2819463E-05 -0.2480888E+03 -0.4989168E-01 -0.1871827E+00  0.2855009E-05  0.4156066E-01  0.8346846E-05
Zone t="Motion of body    1 in DoF   3",I=    10,F=POINT
  0.1000000E+00 -0.2348274E-02  0.2764864E-08 -0.1112437E-02  0.1118224E-08 -0.3852966E+01 -0.6171642E-05  0.3097877E-02  0.3768946E-08 -0.1298577E-01  0.3853347E-07 -0.4035738E-01  0.7297956E-08
  0.2000000E+00 -0.2347827E-02 -0.2235174E-07 -0.1117392E-02 -0.5087713E-08 -0.3999444E+01 -0.1976225E-03  0.2909526E-02 -0.2114684E-06 -0.1267999E-01  0.6449409E-07 -0.4030564E-01  0.2321226E-06
  0.3000000E+00 -0.2292494E-02  0.2002344E-07 -0.1148532E-02 -0.2655725E-08 -0.3091736E+01 -0.1503212E-02  0.4271070E-02 -0.1926441E-05 -0.1312653E-01  0.1903623E-05 -0.4056686E-01  0.1749721E-05
  0.4000000E+00 -0.2338439E-02  0.1098961E-06 -0.1088753E-02 -0.3621972E-07 -0.4564880E+01 -0.6234229E-02  0.2111197E-02 -0.7952098E-05 -0.1200914E-01  0.7996336E-05 -0.3996450E-01  0.7315050E-05
  0.5000000E+00 -0.2332568E-02  0.1154840E-06 -0.1081483E-02  0.7421477E-07 -0.4953366E+01 -0.1885568E-01  0.1607537E-02 -0.2278015E-04 -0.1153302E-01  0.2551079E-04 -0.3956128E-01  0.2206094E-04
  0.6000000E+00 -0.2297362E-02  0.1028180E-05 -0.1137708E-02  0.6716000E-06 -0.4235101E+01 -0.4683374E-01  0.2809564E-02 -0.6402098E-04 -0.1166602E-01  0.6443262E-04 -0.3963994E-01  0.5441001E-04
  0.7000000E+00 -0.2344165E-02  0.2123415E-05 -0.1101076E-02  0.1009204E-05 -0.3886045E+01 -0.1006503E+00  0.2864599E-02 -0.1382679E-03 -0.1284940E-01  0.1356676E-03 -0.3867133E-01  0.1154630E-03
  0.8000000E+00 -0.2278686E-02  0.4418194E-05 -0.1095096E-02  0.2236455E-05 -0.5994187E+01 -0.1907936E+00  0.1348555E-03 -0.2513416E-03 -0.9658039E-02  0.2661794E-03 -0.3924970E-01  0.2230214E-03
  0.9000000E+00 -0.2296766E-02  0.7316470E-05 -0.1070578E-02  0.3240537E-05 -0.5206928E+01 -0.3419897E+00  0.1163615E-02 -0.4370064E-03 -0.1074976E-01  0.4697740E-03 -0.3779335E-01  0.3916089E-03
  0.9999999E+00 -0.2268791E-02  0.1032650E-04 -0.1062399E-02  0.3927154E-05 -0.7692595E+01 -0.5595981E+00 -0.1974106E-02 -0.7139444E-03 -0.7567645E-02  0.7669330E-03 -0.3769016E-01  0.6511077E-03
Zone t="Motion of body    1 in DoF   4",I=    10,F=POINT
  0.1000000E+00  0.1934003E+00 -0.1763851E-09 -0.2590555E+03 -0.1775698E-08 -0.8925498E-02 -0.4100116E-08  0.1931653E+04  0.1394035E-07  0.1630543E+01 -0.2090758E-08 -0.3236479E+00 -0.1381798E-10
  0.2000000E+00  0.1942493E+00  0.4658432E-08 -0.2591692E+03 -0.6813749E-06 -0.9047687E-02 -0.3196592E-06  0.1932487E+04  0.5022057E-05  0.1640669E+01  0.3822424E-07 -0.3237922E+00 -0.7113525E-09
  0.3000000E+00  0.1922756E+00 -0.4548838E-08 -0.2606235E+03 -0.1196199E-04 -0.7434686E-02 -0.1958722E-05  0.1944097E+04  0.8938267E-04  0.1621615E+01 -0.9847736E-07 -0.3256126E+00 -0.1251324E-07
  0.4000000E+00  0.1953534E+00 -0.9402356E-08 -0.2596204E+03 -0.9046795E-04 -0.9579360E-02 -0.7753690E-05  0.1935729E+04  0.6753461E-03  0.1649978E+01 -0.1102144E-06 -0.3243592E+00 -0.1042220E-06
  0.5000000E+00  0.1932978E+00 -0.2001980E-07 -0.2600337E+03 -0.4276241E-03 -0.1029682E-01 -0.2316784E-04  0.1938660E+04  0.3192104E-02  0.1635448E+01 -0.1566004E-06 -0.3248672E+00 -0.5080153E-06
  0.6000000E+00  0.1924895E+00  0.6331902E-07 -0.2617014E+03 -0.1526700E-02 -0.8772214E-02 -0.5725557E-04  0.1951746E+04  0.1139885E-01  0.1614864E+01  0.1654771E-06 -0.3269567E+00 -0.1840817E-05
  0.7000000E+00  0.1903169E+00 -0.5598122E-07 -0.2621992E+03 -0.4476319E-02 -0.8386885E-02 -0.1208728E-03  0.1956302E+04  0.3341899E-01  0.1608825E+01 -0.1246532E-05 -0.3275774E+00 -0.5443618E-05
  0.8000000E+00  0.1916396E+00 -0.6073969E-07 -0.2620778E+03 -0.1133824E-01 -0.1092404E-01 -0.2305767E-03  0.1953417E+04  0.8462108E-01  0.1607609E+01 -0.2099376E-05 -0.3274272E+00 -0.1387751E-04
  0.9000000E+00  0.1883743E+00 -0.5705951E-06 -0.2642441E+03 -0.2575085E-01 -0.1041147E-01 -0.4133505E-03  0.1971192E+04  0.1922064E+00  0.1522020E+01 -0.8882344E-05 -0.3301204E+00 -0.3165881E-04
  0.9999999E+00  0.1911886E+00  0.8454663E-08 -0.2636373E+03 -0.5345335E-01 -0.1343298E-01 -0.6815761E-03  0.1964588E+04  0.3988536E+00  0.1608359E+01 -0.7717405E-05 -0.3293652E+00 -0.6591125E-04
Zone t="Motion of body    1 in DoF   5",I=    10,F=POINT
  0.1000000E+00  0.2590164E+03  0.1805887E-08  0.2053796E+00  0.2296034E-09  0.1332164E-01  0.3039645E-08 -0.1708555E+01 -0.1730342E-08  0.1931361E+04  0.1348860E-07 -0.3254101E+00 -0.2825237E-10
  0.2000000E+00  0.2591302E+03  0.6787893E-06  0.2057388E+00  0.1007772E-08  0.1188159E-01  0.2385314E-06 -0.1714616E+01 -0.9237738E-08  0.1932196E+04  0.5010729E-05 -0.3255588E+00 -0.1248509E-08
  0.3000000E+00  0.2605844E+03  0.1198334E-04  0.2037768E+00 -0.1283326E-07  0.7472833E-02  0.2251483E-05 -0.1695786E+01  0.1267244E-06  0.1943804E+04  0.8956298E-04 -0.3273453E+00 -0.1754924E-07
  0.4000000E+00  0.2595815E+03  0.9047738E-04  0.2065309E+00  0.1204967E-08  0.1355648E-01  0.9246345E-05 -0.1721497E+01  0.4666163E-07  0.1935440E+04  0.6754363E-03 -0.3261417E+00 -0.1248777E-06
  0.5000000E+00  0.2599944E+03  0.4276111E-03  0.2054094E+00  0.3655163E-07  0.1676464E-01  0.2793031E-04 -0.1714139E+01 -0.1810386E-06  0.1938370E+04  0.3192082E-02 -0.3266609E+00 -0.5715158E-06
  0.6000000E+00  0.2616618E+03  0.1526414E-02  0.2039760E+00  0.1189819E-06  0.9191831E-02  0.6945516E-04 -0.1688782E+01 -0.5604306E-06  0.1951448E+04  0.1139686E-01 -0.3287363E+00 -0.2002349E-05
  0.7000000E+00  0.2621617E+03  0.4475726E-02  0.2008222E+00  0.3565899E-06  0.1515865E-01  0.1504580E-03 -0.1674871E+01 -0.1525259E-05  0.1956022E+04  0.3341434E-01 -0.3293112E+00 -0.5810758E-05
  0.8000000E+00  0.2620385E+03  0.1133633E-01  0.2030732E+00  0.8577637E-06  0.1613855E-01  0.2834647E-03 -0.1681142E+01 -0.3855865E-05  0.1953123E+04  0.8460619E-01 -0.3291571E+00 -0.1461300E-04
  0.9000000E+00  0.2642044E+03  0.2574690E-01  0.2002302E+00  0.1878180E-05  0.1683129E-01  0.5091596E-03 -0.1600659E+01 -0.7613329E-05  0.1970897E+04  0.1921760E+00 -0.3318996E+00 -0.3303286E-04
  0.9999999E+00  0.2635978E+03  0.5344636E-01  0.2038491E+00  0.4376593E-05  0.1920223E-01  0.8347763E-03 -0.1691387E+01 -0.2109754E-04  0.1964294E+04  0.3988005E+00 -0.3311973E+00 -0.6831814E-04
Zone t="Motion of body    1 in DoF   6",I=    10,F=POINT
  0.1000000E+00 -0.4107855E-01  0.3659295E-12  0.4076950E-01 -0.5870304E-14  0.2859412E-01  0.1990657E-09 -0.3041062E+00  0.2514433E-11 -0.3068550E+00  0.2547296E-11  0.8375371E-03 -0.9863221E-12
  0.2000000E+00 -0.4109720E-01 -0.1086136E-09  0.4078735E-01  0.1105854E-09  0.2834048E-01  0.1742376E-07 -0.3042382E+00 -0.8003056E-09 -0.3069938E+00 -0.8083987E-09  0.8369560E-03 -0.2682719E-10
  0.3000000E+00 -0.4133001E-01 -0.1891181E-08  0.4102838E-01  0.1868421E-08  0.2937372E-01  0.1485807E-06 -0.3061575E+00 -0.1384825E-07 -0.3088351E+00 -0.1435711E-07  0.8560361E-03 -0.1606575E-09
  0.4000000E+00 -0.4117050E-01 -0.1418528E-07  0.4085830E-01  0.1408234E-07  0.2814968E-01  0.5892757E-06 -0.3047502E+00 -0.1043977E-06 -0.3075236E+00 -0.1066609E-06  0.8373749E-03 -0.6941205E-09
  0.5000000E+00 -0.4123577E-01 -0.6716596E-07  0.4092343E-01  0.6671349E-07  0.2895227E-01  0.1801985E-05 -0.3052088E+00 -0.4957468E-06 -0.3079839E+00 -0.5037734E-06  0.8384711E-03 -0.1918312E-08
  0.6000000E+00 -0.4150440E-01 -0.2396268E-06  0.4119752E-01  0.2380772E-06  0.2960530E-01  0.4372423E-05 -0.3073567E+00 -0.1772551E-05 -0.3100718E+00 -0.1794501E-05  0.8569660E-03 -0.4468355E-08
  0.7000000E+00 -0.4158328E-01 -0.7027816E-06  0.4128780E-01  0.6983382E-06  0.3058560E-01  0.9139656E-05 -0.3081801E+00 -0.5202333E-05 -0.3108247E+00 -0.5257898E-05  0.8584926E-03 -0.8729097E-08
  0.8000000E+00 -0.4154829E-01 -0.1780049E-05  0.4125133E-01  0.1769047E-05  0.2617150E-01  0.1682869E-04 -0.3075807E+00 -0.1318268E-04 -0.3102191E+00 -0.1330533E-04  0.8503054E-03 -0.1518019E-07
  0.9000000E+00 -0.4190959E-01 -0.4043466E-05  0.4161180E-01  0.4017963E-05  0.3111959E-01  0.2923913E-04 -0.3105512E+00 -0.2995478E-04 -0.3131905E+00 -0.3021612E-04  0.8488171E-03 -0.2332360E-07
  0.9999999E+00 -0.4180620E-01 -0.8394769E-05  0.4149492E-01  0.8341056E-05  0.2749371E-01  0.4606699E-04 -0.3093204E+00 -0.6218415E-04 -0.3120729E+00 -0.6269669E-04  0.8537458E-03 -0.3263113E-07
