VARIABLES="w (rad/s)"
"abs(F   1   1)" "angle(F   1   1)"
Zone t="FKforce - beta =   0.000",I=    10,F=POINT
  0.1000000E+00  0.7521802E+00 -0.2300186E-05
  0.2000000E+00  0.7517381E+00 -0.9203809E-05
  0.3000000E+00  0.7509997E+00 -0.2072016E-04
  0.4000000E+00  0.7499679E+00 -0.3686465E-04
  0.5000000E+00  0.7486429E+00 -0.5765899E-04
  0.6000000E+00  0.7470256E+00 -0.8313128E-04
  0.7000000E+00  0.7451180E+00 -0.1133161E-03
  0.8000000E+00  0.7429212E+00 -0.1482542E-03
  0.9000000E+00  0.7404391E+00 -0.1879933E-03
  0.9999999E+00  0.7376716E+00 -0.2325885E-03
